 DBCSR| CPU Multiplication driver                                           XSMM
 DBCSR| Multrec recursion limit                                              512
 DBCSR| Multiplication stack size                                           1000
 DBCSR| Maximum elements for images                                    UNLIMITED
 DBCSR| Multiplicative factor virtual images                                   1
 DBCSR| Use multiplication densification                                       T
 DBCSR| Multiplication size stacks                                             3
 DBCSR| Use memory pool for CPU allocation                                     F
 DBCSR| Number of 3D layers                                               SINGLE
 DBCSR| Use MPI memory allocation                                              F
 DBCSR| Use RMA algorithm                                                      F
 DBCSR| Use Communication thread                                               T
 DBCSR| Communication thread load                                             87
 DBCSR| MPI: My node id                                                        0
 DBCSR| MPI: Number of nodes                                                   4
 DBCSR| OMP: Current number of threads                                         1
 DBCSR| OMP: Max number of threads                                             1
 DBCSR| Split modifier for TAS multiplication algorithm                  1.0E+00


  **** **** ******  **  PROGRAM STARTED AT               2021-07-14 15:22:00.225
 ***** ** ***  *** **   PROGRAM STARTED ON                                tcpc23
 **    ****   ******    PROGRAM STARTED BY                                hsatoh
 ***** **    ** ** **   PROGRAM PROCESS ID                                  4806
  **** **  *******  **  PROGRAM STARTED IN   /data/hsatoh/grrm17_cp2k/H2O-min-re

 CP2K| version string:                    CP2K version 9.0 (Development Version)
 CP2K| source code revision number:                                  git:55d3731
 CP2K| cp2kflags: omp libint fftw3 libxc elpa parallel mpi3 scalapack cosma xsmm
 CP2K|             spglib sirius libvori libbqb
 CP2K| is freely available from                            https://www.cp2k.org/
 CP2K| Program compiled at                         Die Jul 13 21:12:25 CEST 2021
 CP2K| Program compiled on                                                tcpc23
 CP2K| Program compiled for                                                local
 CP2K| Data directory path                                /data/hutter/cp2k/data
 CP2K| Input file name                                         grrm_H2O_cp2k.inp

 GLOBAL| Force Environment number                                              1
 GLOBAL| Basis set file name                                     EMSL_BASIS_SETS
 GLOBAL| Potential file name                                           POTENTIAL
 GLOBAL| MM Potential file name                                     MM_POTENTIAL
 GLOBAL| Coordinate file name                                      __STD_INPUT__
 GLOBAL| Method name                                                        CP2K
 GLOBAL| Project name                                              grrm_H2O_cp2k
 GLOBAL| Run type                                           VIBRATIONAL_ANALYSIS
 GLOBAL| FFT library                                                       FFTW3
 GLOBAL| Diagonalization library                                            ELPA
 GLOBAL| Minimum number of eigenvectors for ELPA usage                        16
 GLOBAL| Orthonormality check for eigenvectors                          DISABLED
 GLOBAL| Matrix multiplication library                                     COSMA
 GLOBAL| All-to-all communication in single precision                          F
 GLOBAL| FFTs using library dependent lengths                                  F
 GLOBAL| Grid backend                                                       AUTO
 GLOBAL| Global print level                                               MEDIUM
 GLOBAL| MPI I/O enabled                                                       T
 GLOBAL| Total number of message passing processes                             4
 GLOBAL| Number of threads for this process                                    1
 GLOBAL| This output is from process                                           0
 GLOBAL| CPU model name                Intel(R) Xeon(R) CPU E5-2650 v4 @ 2.20GHz
 GLOBAL| CPUID                                                              1002

 MEMORY| system memory details [Kb]
 MEMORY|                        rank 0           min           max       average
 MEMORY| MemTotal            131915472     131915472     131915472     131915472
 MEMORY| MemFree              81682636      81682636      81682636      81682636
 MEMORY| Buffers                587888        587888        587888        587888
 MEMORY| Cached               43898860      43898860      43898860      43898860
 MEMORY| Slab                  3520496       3520496       3520496       3520496
 MEMORY| SReclaimable          3109400       3109400       3109400       3109400
 MEMORY| MemLikelyFree       129278784     129278784     129278784     129278784


 *** Fundamental physical constants (SI units) ***

 *** Literature: B. J. Mohr and B. N. Taylor,
 ***             CODATA recommended values of the fundamental physical
 ***             constants: 2006, Web Version 5.1
 ***             http://physics.nist.gov/constants

 Speed of light in vacuum [m/s]                             2.99792458000000E+08
 Magnetic constant or permeability of vacuum [N/A**2]       1.25663706143592E-06
 Electric constant or permittivity of vacuum [F/m]          8.85418781762039E-12
 Planck constant (h) [J*s]                                  6.62606896000000E-34
 Planck constant (h-bar) [J*s]                              1.05457162825177E-34
 Elementary charge [C]                                      1.60217648700000E-19
 Electron mass [kg]                                         9.10938215000000E-31
 Electron g factor [ ]                                     -2.00231930436220E+00
 Proton mass [kg]                                           1.67262163700000E-27
 Fine-structure constant                                    7.29735253760000E-03
 Rydberg constant [1/m]                                     1.09737315685270E+07
 Avogadro constant [1/mol]                                  6.02214179000000E+23
 Boltzmann constant [J/K]                                   1.38065040000000E-23
 Atomic mass unit [kg]                                      1.66053878200000E-27
 Bohr radius [m]                                            5.29177208590000E-11

 *** Conversion factors ***

 [u] -> [a.u.]                                              1.82288848426455E+03
 [Angstrom] -> [Bohr] = [a.u.]                              1.88972613288564E+00
 [a.u.] = [Bohr] -> [Angstrom]                              5.29177208590000E-01
 [a.u.] -> [s]                                              2.41888432650478E-17
 [a.u.] -> [fs]                                             2.41888432650478E-02
 [a.u.] -> [J]                                              4.35974393937059E-18
 [a.u.] -> [N]                                              8.23872205491840E-08
 [a.u.] -> [K]                                              3.15774647902944E+05
 [a.u.] -> [kJ/mol]                                         2.62549961709828E+03
 [a.u.] -> [kcal/mol]                                       6.27509468713739E+02
 [a.u.] -> [Pa]                                             2.94210107994716E+13
 [a.u.] -> [bar]                                            2.94210107994716E+08
 [a.u.] -> [atm]                                            2.90362800883016E+08
 [a.u.] -> [eV]                                             2.72113838565563E+01
 [a.u.] -> [Hz]                                             6.57968392072181E+15
 [a.u.] -> [1/cm] (wave numbers)                            2.19474631370540E+05
 [a.u./Bohr**2] -> [1/cm]                                   5.14048714338585E+03
 

 CELL_TOP| Volume [angstrom^3]:                                      1000.000000
 CELL_TOP| Vector a [angstrom    10.000     0.000     0.000   |a| =    10.000000
 CELL_TOP| Vector b [angstrom     0.000    10.000     0.000   |b| =    10.000000
 CELL_TOP| Vector c [angstrom     0.000     0.000    10.000   |c| =    10.000000
 CELL_TOP| Angle (b,c), alpha [degree]:                                90.000000
 CELL_TOP| Angle (a,c), beta  [degree]:                                90.000000
 CELL_TOP| Angle (a,b), gamma [degree]:                                90.000000
 CELL_TOP| Numerically orthorhombic:                                         YES

 GENERATE|  Preliminary Number of Bonds generated:                             0
 GENERATE|  Achieved consistency in connectivity generation.

 CELL| Volume [angstrom^3]:                                          1000.000000
 CELL| Vector a [angstrom]:      10.000     0.000     0.000   |a| =    10.000000
 CELL| Vector b [angstrom]:       0.000    10.000     0.000   |b| =    10.000000
 CELL| Vector c [angstrom]:       0.000     0.000    10.000   |c| =    10.000000
 CELL| Angle (b,c), alpha [degree]:                                    90.000000
 CELL| Angle (a,c), beta  [degree]:                                    90.000000
 CELL| Angle (a,b), gamma [degree]:                                    90.000000
 CELL| Numerically orthorhombic:                                             YES

 CELL_REF| Volume [angstrom^3]:                                      1000.000000
 CELL_REF| Vector a [angstrom    10.000     0.000     0.000   |a| =    10.000000
 CELL_REF| Vector b [angstrom     0.000    10.000     0.000   |b| =    10.000000
 CELL_REF| Vector c [angstrom     0.000     0.000    10.000   |c| =    10.000000
 CELL_REF| Angle (b,c), alpha [degree]:                                90.000000
 CELL_REF| Angle (a,c), beta  [degree]:                                90.000000
 CELL_REF| Angle (a,b), gamma [degree]:                                90.000000
 CELL_REF| Numerically orthorhombic:                                         YES

 *******************************************************************************
 *******************************************************************************
 **                                                                           **
 **     #####                         ##              ##                      **
 **    ##   ##            ##          ##              ##                      **
 **   ##     ##                       ##            ######                    **
 **   ##     ##  ##   ##  ##   #####  ##  ##   ####   ##    #####    #####    **
 **   ##     ##  ##   ##  ##  ##      ## ##   ##      ##   ##   ##  ##   ##   **
 **   ##  ## ##  ##   ##  ##  ##      ####     ###    ##   ######   ######    **
 **    ##  ###   ##   ##  ##  ##      ## ##      ##   ##   ##       ##        **
 **     #######   #####   ##   #####  ##  ##  ####    ##    #####   ##        **
 **           ##                                                    ##        **
 **                                                                           **
 **                                                ... make the atoms dance   **
 **                                                                           **
 **            Copyright (C) by CP2K developers group (2000-2021)             **
 **                      J. Chem. Phys. 152, 194103 (2020)                    **
 **                                                                           **
 *******************************************************************************

 DFT| Spin restricted Kohn-Sham (RKS) calculation                            RKS
 DFT| Multiplicity                                                             1
 DFT| Number of spin states                                                    1
 DFT| Charge                                                                   0
 DFT| Self-interaction correction (SIC)                                       NO
 DFT| Cutoffs: density                                              1.000000E-10
 DFT|          gradient                                             1.000000E-10
 DFT|          tau                                                  1.000000E-10
 DFT|          cutoff_smoothing_range                               0.000000E+00
 DFT| XC density smoothing                                                  NONE
 DFT| XC derivatives                                                          PW
 FUNCTIONAL| ROUTINE=NEW
 FUNCTIONAL| LIBXC Vers. 5.1.4 (Marques, Oliveira, Burnus, CPC 183, 2272 (2012))
 FUNCTIONAL| B3LYP (exchange-correlation):
 FUNCTIONAL| [1] P. J. Stephens, F. J. Devlin, C. F. Chabalowski, and M. J. Fris
 FUNCTIONAL| ch, J. Phys. Chem. 98, 11623 (1994), doi: 10.1021/j100096a001      
 FUNCTIONAL| Optional external parameters:                                      
 FUNCTIONAL|  * Fraction of exact exchange                                      
 FUNCTIONAL|  * Fraction of GGA exchange correction                             
 FUNCTIONAL|  * Fraction of GGA correlation correction                          
 FUNCTIONAL| {scale=1.000, spin-unpolarized}                                    

 QS| Method:                                                                GAPW
 QS| Density plane wave grid type                        NON-SPHERICAL FULLSPACE
 QS| Number of grid levels:                                                    4
 QS| Density cutoff [a.u.]:                                                200.0
 QS| Multi grid cutoff [a.u.]: 1) grid level                               200.0
 QS|                           2) grid level                                66.7
 QS|                           3) grid level                                22.2
 QS|                           4) grid level                                 7.4
 QS| Grid level progression factor:                                          3.0
 QS| Relative density cutoff [a.u.]:                                        35.0
 QS| Interaction thresholds: eps_pgf_orb:                                1.0E-05
 QS|                         eps_filter_matrix:                          0.0E+00
 QS|                         eps_core_charge:                            1.0E-12
 QS|                         eps_rho_gspace:                             1.0E-10
 QS|                         eps_rho_rspace:                             1.0E-10
 QS|                         eps_gvg_rspace:                             1.0E-05
 QS|                         eps_ppl:                                    1.0E-02
 QS|                         eps_ppnl:                                   1.0E-07
 QS| GAPW|                   eps_fit:                                    1.0E-04
 QS| GAPW|                   eps_iso:                                    1.0E-12
 QS| GAPW|                   eps_svd:                                    1.0E-08
 QS| GAPW|                   eps_cpc:                                    1.0E-10
 QS| GAPW|   atom-r-grid: quadrature:                                     GC_LOG
 QS| GAPW|      atom-s-grid:  max l :                                          4
 QS| GAPW|      max_l_rho0 :                                                   2


 ATOMIC KIND INFORMATION

  1. Atomic kind: O                                     Number of atoms:       1

     Orbital Basis Set                                                    6-31Gx

       Number of orbital shell sets:                                           4
       Number of orbital shells:                                               6
       Number of primitive Cartesian functions:                               11
       Number of Cartesian basis functions:                                   15
       Number of spherical basis functions:                                   14
       Norm type:                                                              2

       Normalised Cartesian orbitals:

                        Set   Shell   Orbital            Exponent    Coefficient

                          1       1    1s             5484.671700       0.831735
                                                       825.234950       1.530807
                                                       188.046960       2.477149
                                                        52.964500       3.256280
                                                        16.897570       2.792894
                                                         5.799635       0.954938

                          2       1    1s               15.539616      -0.617934
                                                         3.599934      -0.275721
                                                         1.013762       0.814208

                          2       2    2px              15.539616       3.116946
                                                         3.599934       2.401437
                                                         1.013762       1.054361
                          2       2    2py              15.539616       3.116946
                                                         3.599934       2.401437
                                                         1.013762       1.054361
                          2       2    2pz              15.539616       3.116946
                                                         3.599934       2.401437
                                                         1.013762       1.054361

                          3       1    1s                0.270006       0.266956

                          3       2    2px               0.270006       0.277432
                          3       2    2py               0.270006       0.277432
                          3       2    2pz               0.270006       0.277432

                          4       1    1dx2              0.800000       1.113825
                          4       1    1dxy              0.800000       1.929201
                          4       1    1dxz              0.800000       1.929201
                          4       1    1dy2              0.800000       1.113825
                          4       1    1dyz              0.800000       1.929201
                          4       1    1dz2              0.800000       1.113825

       Atomic covalent radius [Angstrom]:                                  0.730

       Atomic van der Waals radius [Angstrom]:                             1.520

     The atoms of this atomic kind are PAW atoms (GAPW):
       Hard Gaussian function radius:                                      1.512
       Rho0 radius:                                                        1.512
       Maximum GTO radius used for PAW projector construction:            24.566

     GAPW Soft Basis Set                                             6-31Gx_soft

       Number of orbital shell sets:                                           4
       Number of orbital shells:                                               6
       Number of primitive Cartesian functions:                                4
       Number of Cartesian basis functions:                                   15
       Number of spherical basis functions:                                   14
       Norm type:                                                              2

       Normalised Cartesian orbitals:

                        Set   Shell   Orbital            Exponent    Coefficient

                          1       1    1s         

                          2       1    1s                3.599934      -0.275721
                                                         1.013762       0.814208

                          2       2    2px               3.599934       2.401437
                                                         1.013762       1.054361
                          2       2    2py               3.599934       2.401437
                                                         1.013762       1.054361
                          2       2    2pz               3.599934       2.401437
                                                         1.013762       1.054361

                          3       1    1s                0.270006       0.266956

                          3       2    2px               0.270006       0.277432
                          3       2    2py               0.270006       0.277432
                          3       2    2pz               0.270006       0.277432

                          4       1    1dx2              0.800000       1.113825
                          4       1    1dxy              0.800000       1.929201
                          4       1    1dxz              0.800000       1.929201
                          4       1    1dy2              0.800000       1.113825
                          4       1    1dyz              0.800000       1.929201
                          4       1    1dz2              0.800000       1.113825

     AE Potential information for                                            ALL

       Description:                                       All-electron potential
                                          Krack, Parrinello, PCCP 2, 2105 (2000)

       Gaussian exponent of the core charge distribution:               8.154466
       Electronic configuration (s p d ...):                           4   4   0

  2. Atomic kind: H                                     Number of atoms:       2

     Orbital Basis Set                                                    6-31Gx

       Number of orbital shell sets:                                           2
       Number of orbital shells:                                               2
       Number of primitive Cartesian functions:                                4
       Number of Cartesian basis functions:                                    2
       Number of spherical basis functions:                                    2
       Norm type:                                                              2

       Normalised Cartesian orbitals:

                        Set   Shell   Orbital            Exponent    Coefficient

                          1       1    1s               18.731137       0.214935
                                                         2.825394       0.364571
                                                         0.640122       0.415051

                          2       1    1s                0.161278       0.181381

       Atomic covalent radius [Angstrom]:                                  0.320

       Atomic van der Waals radius [Angstrom]:                             1.090

     The atoms of this atomic kind are PAW atoms (GAPW):
       Hard Gaussian function radius:                                      1.200
       Rho0 radius:                                                        1.200
       Maximum GTO radius used for PAW projector construction:            24.566

     GAPW Soft Basis Set                                             6-31Gx_soft

       Number of orbital shell sets:                                           2
       Number of orbital shells:                                               2
       Number of primitive Cartesian functions:                                3
       Number of Cartesian basis functions:                                    2
       Number of spherical basis functions:                                    2
       Norm type:                                                              2

       Normalised Cartesian orbitals:

                        Set   Shell   Orbital            Exponent    Coefficient

                          1       1    1s                2.825394       0.364571
                                                         0.640122       0.415051

                          2       1    1s                0.161278       0.181381

     AE Potential information for                                            ALL

       Description:                                       All-electron potential
                                          Krack, Parrinello, PCCP 2, 2105 (2000)

       Gaussian exponent of the core charge distribution:              12.500000
       Electronic configuration (s p d ...):                           1   0   0


 MOLECULE KIND INFORMATION


 All atoms are their own molecule, skipping detailed information


 TOTAL NUMBERS AND MAXIMUM NUMBERS

  Total number of            - Atomic kinds:                                   2
                             - Atoms:                                          3
                             - Shell sets:                                     8
                             - Shells:                                        10
                             - Primitive Cartesian functions:                 19
                             - Cartesian basis functions:                     19
                             - Spherical basis functions:                     18

  Maximum angular momentum of the orbital basis functions:                     2


 MODULE QUICKSTEP:  ATOMIC COORDINATES IN angstrom

 Atom  Kind  Element       X           Y           Z          Z(eff)       Mass
    1   1 O    8       0.000000    0.000000    0.113399       8.0000     15.9994
    2   2 H    1       0.000000    0.759328   -0.453596       1.0000      1.0079
    3   2 H    1       0.000000   -0.759328   -0.453596       1.0000      1.0079




 SCF PARAMETERS         Density guess:                                    ATOMIC
                        --------------------------------------------------------
                        max_scf:                                              10
                        max_scf_history:                                       0
                        max_diis:                                              4
                        --------------------------------------------------------
                        eps_scf:                                        1.00E-07
                        eps_scf_history:                                0.00E+00
                        eps_diis:                                       1.00E-01
                        eps_eigval:                                     1.00E-05
                        --------------------------------------------------------
                        level_shift [a.u.]:                                 0.00
                        --------------------------------------------------------
                        Outer loop SCF in use 
                        No variables optimised in outer loop
                        eps_scf                                         1.00E-07
                        max_scf                                               10
                        No outer loop optimization
                        step_size                                       5.00E-01

 PW_GRID| Information for grid number                                          1
 PW_GRID| Grid distributed over                                     4 processors
 PW_GRID| Real space group dimensions                                     4    1
 PW_GRID| the grid is blocked:                                                NO
 PW_GRID| Cutoff [a.u.]                                                    400.0
 PW_GRID| spherical cutoff:                                                   NO
 PW_GRID|   Bounds   1            -90      89                Points:         180
 PW_GRID|   Bounds   2            -90      89                Points:         180
 PW_GRID|   Bounds   3            -90      89                Points:         180
 PW_GRID| Volume element (a.u.^3)  0.1157E-02     Volume (a.u.^3)      6748.3346
 PW_GRID| Grid span                                                    FULLSPACE
 PW_GRID|   Distribution                         Average         Max         Min
 PW_GRID|   G-Vectors                          1458000.0     1458000     1458000
 PW_GRID|   G-Rays                                8100.0        8100        8100
 PW_GRID|   Real Space Points                  1458000.0     1458000     1458000

 PW_GRID| Information for grid number                                          2
 PW_GRID| Number of the reference grid                                         1
 PW_GRID| Grid distributed over                                     4 processors
 PW_GRID| Real space group dimensions                                     4    1
 PW_GRID| the grid is blocked:                                                NO
 PW_GRID| Cutoff [a.u.]                                                    200.0
 PW_GRID| spherical cutoff:                                                   NO
 PW_GRID|   Bounds   1            -62      62                Points:         125
 PW_GRID|   Bounds   2            -62      62                Points:         125
 PW_GRID|   Bounds   3            -62      62                Points:         125
 PW_GRID| Volume element (a.u.^3)  0.3455E-02     Volume (a.u.^3)      6748.3346
 PW_GRID| Grid span                                                    FULLSPACE
 PW_GRID|   Distribution                         Average         Max         Min
 PW_GRID|   G-Vectors                           488281.2      488625      488000
 PW_GRID|   G-Rays                                3906.2        3909        3904
 PW_GRID|   Real Space Points                   488281.2      500000      484375

 PW_GRID| Information for grid number                                          3
 PW_GRID| Number of the reference grid                                         2
 PW_GRID| Grid distributed over                                     4 processors
 PW_GRID| Real space group dimensions                                     4    1
 PW_GRID| the grid is blocked:                                                NO
 PW_GRID| Cutoff [a.u.]                                                     66.7
 PW_GRID| spherical cutoff:                                                   NO
 PW_GRID|   Bounds   1            -36      35                Points:          72
 PW_GRID|   Bounds   2            -36      35                Points:          72
 PW_GRID|   Bounds   3            -36      35                Points:          72
 PW_GRID| Volume element (a.u.^3)  0.1808E-01     Volume (a.u.^3)      6748.3346
 PW_GRID| Grid span                                                    FULLSPACE
 PW_GRID|   Distribution                         Average         Max         Min
 PW_GRID|   G-Vectors                            93312.0       93384       93240
 PW_GRID|   G-Rays                                1296.0        1297        1295
 PW_GRID|   Real Space Points                    93312.0       93312       93312

 PW_GRID| Information for grid number                                          4
 PW_GRID| Number of the reference grid                                         2
 PW_GRID| Grid distributed over                                     4 processors
 PW_GRID| Real space group dimensions                                     4    1
 PW_GRID| the grid is blocked:                                                NO
 PW_GRID| Cutoff [a.u.]                                                     22.2
 PW_GRID| spherical cutoff:                                                   NO
 PW_GRID|   Bounds   1            -22      22                Points:          45
 PW_GRID|   Bounds   2            -22      22                Points:          45
 PW_GRID|   Bounds   3            -22      22                Points:          45
 PW_GRID| Volume element (a.u.^3)  0.7406E-01     Volume (a.u.^3)      6748.3346
 PW_GRID| Grid span                                                    FULLSPACE
 PW_GRID|   Distribution                         Average         Max         Min
 PW_GRID|   G-Vectors                            22781.2       22905       22680
 PW_GRID|   G-Rays                                 506.2         509         504
 PW_GRID|   Real Space Points                    22781.2       24300       22275

 PW_GRID| Information for grid number                                          5
 PW_GRID| Number of the reference grid                                         2
 PW_GRID| Grid distributed over                                     4 processors
 PW_GRID| Real space group dimensions                                     4    1
 PW_GRID| the grid is blocked:                                                NO
 PW_GRID| Cutoff [a.u.]                                                      7.4
 PW_GRID| spherical cutoff:                                                   NO
 PW_GRID|   Bounds   1            -12      11                Points:          24
 PW_GRID|   Bounds   2            -12      11                Points:          24
 PW_GRID|   Bounds   3            -12      11                Points:          24
 PW_GRID| Volume element (a.u.^3)  0.4882         Volume (a.u.^3)      6748.3346
 PW_GRID| Grid span                                                    FULLSPACE
 PW_GRID|   Distribution                         Average         Max         Min
 PW_GRID|   G-Vectors                             3456.0        3480        3432
 PW_GRID|   G-Rays                                 144.0         145         143
 PW_GRID|   Real Space Points                     3456.0        3456        3456

 POISSON| Solver                                          Martyna-Tuckerman (MT)
 POISSON| MT| Alpha                                                        7.000
 POISSON| MT| Relative cutoff                                                2.0
 POISSON| Periodicity                                                       NONE

 RS_GRID| Information for grid number                                          2
 RS_GRID|   Bounds   1            -62      62                Points:         125
 RS_GRID|   Bounds   2            -62      62                Points:         125
 RS_GRID|   Bounds   3            -62      62                Points:         125
 RS_GRID| Real space fully replicated
 RS_GRID| Group size                                                           1

 RS_GRID| Information for grid number                                          3
 RS_GRID|   Bounds   1            -36      35                Points:          72
 RS_GRID|   Bounds   2            -36      35                Points:          72
 RS_GRID|   Bounds   3            -36      35                Points:          72
 RS_GRID| Real space fully replicated
 RS_GRID| Group size                                                           1

 RS_GRID| Information for grid number                                          4
 RS_GRID|   Bounds   1            -22      22                Points:          45
 RS_GRID|   Bounds   2            -22      22                Points:          45
 RS_GRID|   Bounds   3            -22      22                Points:          45
 RS_GRID| Real space fully replicated
 RS_GRID| Group size                                                           1

 RS_GRID| Information for grid number                                          5
 RS_GRID|   Bounds   1            -12      11                Points:          24
 RS_GRID|   Bounds   2            -12      11                Points:          24
 RS_GRID|   Bounds   3            -12      11                Points:          24
 RS_GRID| Real space fully replicated
 RS_GRID| Group size                                                           1

  HFX_INFO| Replica ID:                                                        1
  HFX_INFO| FRACTION:                                               0.2000000000
  HFX_INFO| Interaction Potential:                                       COULOMB
  HFX_INFO| EPS_SCHWARZ:                                                 1.0E-12
  HFX_INFO| EPS_SCHWARZ_FORCES                                           1.0E-10
  HFX_INFO| EPS_STORAGE_SCALING:                                         1.0E+00
  HFX_INFO| NBINS:                                                            64
  HFX_INFO| BLOCK_SIZE:                                                        1
  HFX_INFO| Number of periodic shells considered:                           NONE
  HFX_INFO| Number of periodic cells considered:                            NONE


 *******************************************************************************
 *******************************************************************************
 **                                                                           **
 **  #  #   #    #                  #     #                      ##           **
 **  #  #        ###   # ##   ###  ####         ##   # #    ###   #           **
 **  #  #   #    #  #  ##    #  #   #     #    #  #  ## #  #  #   #           **
 **   ##    #    #  #  #     # ##   #     #    #  #  #  #  # ##   #           **
 **   ##    #    ###   #      # #    ##   #     ##   #  #   # #  ###          **
 **                                                                           **
 **   ##               ##                 #                                   **
 **  #  #  # #    ###   #    #  #   ###         ###                           **
 **  #  #  ## #  #  #   #    #  #  ##     #    ##                             **
 **  ####  #  #  # ##   #     ###    ##   #      ##  N. Replicas:           4 **
 **  #  #  #  #   # #  ###      #  ###    #    ###   N. Procs/Rep:          1 **
 **                           ##                                              **
 **                                       T. Laino  and F. Schiffmann         **
 **                                       2008 - 2015                         **
 *******************************************************************************
 *******************************************************************************

 REPLICA| layout of the replica grid, number of groups                         4
 REPLICA| layout of the replica grid, size of each group                       1
 REPLICA| MPI process to grid (group,rank) correspondence:
  (   0 :    0,   0)  (   1 :    1,   0)  (   2 :    2,   0)  (   3 :    3,   0)

 VIB| Vibrational Analysis Info
 VIB| REPLICA Nr.    1- Energy and Forces for particle:    1  coordinate: X + DX
 VIB|                                     Total Energy:            -76.405658537
 VIB|    ATOM                            X                Y                Z
 VIB|      O                       0.000503108      0.000000005      0.030395713           
 VIB|      H                      -0.000136602      0.015010527     -0.015021357           
 VIB|      H                      -0.000136596     -0.015010532     -0.015021363           
 VIB| REPLICA Nr.    2- Energy and Forces for particle:    1  coordinate: Y + DY
 VIB|                                     Total Energy:            -76.405617769
 VIB|    ATOM                            X                Y                Z
 VIB|      O                      -0.000000002     -0.007646460      0.030532161           
 VIB|      H                      -0.000000001      0.018918906     -0.018067254           
 VIB|      H                       0.000000004     -0.011209902     -0.012101371           
 VIB| REPLICA Nr.    3- Energy and Forces for particle:    1  coordinate: Z + DZ
 VIB|                                     Total Energy:            -76.405936285
 VIB|    ATOM                            X                Y                Z
 VIB|      O                      -0.000000001      0.000000005      0.025618552           
 VIB|      H                      -0.000000003      0.012781425     -0.012646787           
 VIB|      H                       0.000000004     -0.012781429     -0.012646794           
 VIB| REPLICA Nr.    4- Energy and Forces for particle:    2  coordinate: X + DX
 VIB|                                     Total Energy:            -76.405656618
 VIB|    ATOM                            X                Y                Z
 VIB|      O                      -0.000136463      0.000013945      0.030427597           
 VIB|      H                       0.000122510      0.015007130     -0.015022374           
 VIB|      H                       0.000017907     -0.015021207     -0.015032973           
 VIB| REPLICA Nr.    1- Energy and Forces for particle:    2  coordinate: Y + DY
 VIB|                                     Total Energy:            -76.405785686
 VIB|    ATOM                            X                Y                Z
 VIB|      O                       0.000000000      0.003811052      0.028214884           
 VIB|      H                      -0.000000000      0.010919729     -0.012455334           
 VIB|      H                       0.000000000     -0.014729742     -0.015387325           
 VIB| REPLICA Nr.    2- Energy and Forces for particle:    2  coordinate: Z + DZ
 VIB|                                     Total Energy:            -76.405494349
 VIB|    ATOM                            X                Y                Z
 VIB|      O                       0.000000000     -0.003015985      0.032838531           
 VIB|      H                       0.000000000      0.017679084     -0.017296467           
 VIB|      H                       0.000000000     -0.014663984     -0.015168336           
 VIB| REPLICA Nr.    3- Energy and Forces for particle:    3  coordinate: X + DX
 VIB|                                     Total Energy:            -76.405656618
 VIB|    ATOM                            X                Y                Z
 VIB|      O                      -0.000136459     -0.000013939      0.030427593           
 VIB|      H                       0.000017904      0.015021198     -0.015032968           
 VIB|      H                       0.000122510     -0.015007128     -0.015022375           
 VIB| REPLICA Nr.    4- Energy and Forces for particle:    3  coordinate: Y + DY
 VIB|                                     Total Energy:            -76.405484890
 VIB|    ATOM                            X                Y                Z
 VIB|      O                      -0.000000003      0.003898231      0.032758015           
 VIB|      H                       0.000000003      0.015316750     -0.014676209           
 VIB|      H                      -0.000000000     -0.019213310     -0.017709205           
 VIB| REPLICA Nr.    1- Energy and Forces for particle:    3  coordinate: Z + DZ
 VIB|                                     Total Energy:            -76.405494349
 VIB|    ATOM                            X                Y                Z
 VIB|      O                      -0.000000003      0.003015987      0.032838531           
 VIB|      H                       0.000000001      0.014663986     -0.015168337           
 VIB|      H                       0.000000001     -0.017679089     -0.017296466           
 VIB| REPLICA Nr.    1- Energy and Forces for particle:    1  coordinate: X - DX
 VIB|                                     Total Energy:            -76.405658537
 VIB|    ATOM                            X                Y                Z
 VIB|      O                      -0.000503105     -0.000000003      0.030395717           
 VIB|      H                       0.000136597      0.015010535     -0.015021362           
 VIB|      H                       0.000136597     -0.015010532     -0.015021363           
 VIB| REPLICA Nr.    2- Energy and Forces for particle:    1  coordinate: Y - DY
 VIB|                                     Total Energy:            -76.405617769
 VIB|    ATOM                            X                Y                Z
 VIB|      O                       0.000000000      0.007646467      0.030532167           
 VIB|      H                       0.000000000      0.011209896     -0.012101370           
 VIB|      H                       0.000000000     -0.018918907     -0.018067260           
 VIB| REPLICA Nr.    3- Energy and Forces for particle:    1  coordinate: Z - DZ
 VIB|                                     Total Energy:            -76.405327608
 VIB|    ATOM                            X                Y                Z
 VIB|      O                       0.000000005     -0.000000000      0.035234318           
 VIB|      H                      -0.000000001      0.017323760     -0.017434625           
 VIB|      H                      -0.000000004     -0.017323760     -0.017434624           
 VIB| REPLICA Nr.    4- Energy and Forces for particle:    2  coordinate: X - DX
 VIB|                                     Total Energy:            -76.405656618
 VIB|    ATOM                            X                Y                Z
 VIB|      O                       0.000136462      0.000013940      0.030427598           
 VIB|      H                      -0.000122512      0.015007135     -0.015022377           
 VIB|      H                      -0.000017904     -0.015021206     -0.015032971           
 VIB| REPLICA Nr.    1- Energy and Forces for particle:    2  coordinate: Y - DY
 VIB|                                     Total Energy:            -76.405484890
 VIB|    ATOM                            X                Y                Z
 VIB|      O                      -0.000000004     -0.003898227      0.032758017           
 VIB|      H                       0.000000002      0.019213312     -0.017709206           
 VIB|      H                       0.000000002     -0.015316756     -0.014676210           
 VIB| REPLICA Nr.    2- Energy and Forces for particle:    2  coordinate: Z - DZ
 VIB|                                     Total Energy:            -76.405795088
 VIB|    ATOM                            X                Y                Z
 VIB|      O                       0.000000000      0.002949257      0.028050626           
 VIB|      H                       0.000000000      0.012426507     -0.012782282           
 VIB|      H                       0.000000000     -0.015375080     -0.014897582           
 VIB| REPLICA Nr.    3- Energy and Forces for particle:    3  coordinate: X - DX
 VIB|                                     Total Energy:            -76.405656618
 VIB|    ATOM                            X                Y                Z
 VIB|      O                       0.000136462     -0.000013939      0.030427600           
 VIB|      H                      -0.000017904      0.015021205     -0.015032971           
 VIB|      H                      -0.000122512     -0.015007135     -0.015022378           
 VIB| REPLICA Nr.    4- Energy and Forces for particle:    3  coordinate: Y - DY
 VIB|                                     Total Energy:            -76.405785686
 VIB|    ATOM                            X                Y                Z
 VIB|      O                       0.000000001     -0.003811044      0.028214886           
 VIB|      H                      -0.000000001      0.014729739     -0.015387322           
 VIB|      H                      -0.000000000     -0.010919733     -0.012455339           
 VIB| REPLICA Nr.    1- Energy and Forces for particle:    3  coordinate: Z - DZ
 VIB|                                     Total Energy:            -76.405795088
 VIB|    ATOM                            X                Y                Z
 VIB|      O                       0.000000004     -0.002949252      0.028050630           
 VIB|      H                      -0.000000002      0.015375079     -0.014897580           
 VIB|      H                      -0.000000002     -0.012426510     -0.012782288           
 VIB| 
  Minimum Structure - Energy and Forces:
 VIB|                                     Total Energy:            -76.405655995
 VIB|    ATOM                            X                Y                Z
 VIB|      O                      -0.000000005      0.000000004      0.030437472           
 VIB|      H                       0.000000003      0.015020854     -0.015032709           
 VIB|      H                       0.000000003     -0.015020858     -0.015032709           
 VIB| Hessian in cartesian coordinates

                    1            2            3            4            5
     1  O       -1.725028     0.000003     0.000010     1.864162    -0.000032
     2  O       -0.000013    26.217835    -0.000010    -0.000038   -52.656800
     3  O        0.000008     0.000010    16.485042     0.000008    31.031023
     4  H        1.866034     0.000010     0.000013    -6.667764     0.000064
     5  H        0.000052   -52.654969    31.025583     0.000129   225.692656
     6  H       -0.000033    40.748861   -32.702437    -0.000086  -142.973211
     7  H        1.865995    -0.000024    -0.000052    -0.974525     0.000062
     8  H        0.000001   -52.654930   -31.025545     0.000021   -15.974362
     9  H        0.000001   -40.748902   -32.702388     0.000052    19.351519

                    6            7            8            9
     1  O        0.000000     1.864138     0.000027     0.000048
     2  O       40.744476    -0.000001   -52.656779   -40.744463
     3  O      -32.702894     0.000046   -31.031001   -32.702865
     4  H       -0.000000    -0.974432    -0.000109    -0.000094
     5  H     -142.937986     0.000191   -15.974268    19.350912
     6  H      122.844153    -0.000095   -19.351468     7.368085
     7  H       -0.000000    -6.667761     0.000000    -0.000097
     8  H      -19.351013    -0.000188   225.692477   142.938033
     9  H        7.368020    -0.000091   142.973068   122.843969
 VIB| Cartesian Low frequencies --- -8.6464     -6.6710     -5.6933    -0.72087    
 VIB| Cartesian Low frequencies ----0.19930     0.51793E-01  54.668      333.64    
 VIB| Cartesian Low frequencies ---  358.28    
 VIB| Eigenvectors before removal of rotations and translations

                    1            2            3            4            5
     1  O       -0.355949    -0.000016    -0.000002     0.934505     0.000003
     2  O        0.000009    -0.198970     0.000015    -0.000003     0.941278
     3  O        0.000002     0.000004     0.000002    -0.000019     0.000109
     4  H        0.660797     0.000045     0.707104     0.251696    -0.000008
     5  H       -0.000018     0.384138    -0.000006    -0.000001     0.238718
     6  H       -0.000025     0.576752    -0.000013    -0.000004     0.003395
     7  H        0.660793     0.000014    -0.707109     0.251692     0.000009
     8  H       -0.000017     0.384140    -0.000005    -0.000001     0.238718
     9  H        0.000027    -0.576752     0.000013    -0.000005    -0.003339

                    6            7            8            9
     1  O       -0.000019    -0.000000     0.000000     0.000000
     2  O        0.000108    -0.000001    -0.000001    -0.272775
     3  O       -0.942219    -0.274387    -0.192185     0.000001
     4  H       -0.000002     0.000000    -0.000000    -0.000000
     5  H       -0.000125     0.406016    -0.578922     0.543555
     6  H       -0.236876     0.545444     0.382595    -0.409081
     7  H       -0.000005    -0.000001    -0.000001     0.000000
     8  H        0.000183    -0.406014     0.578924     0.543553
     9  H       -0.236882     0.545442     0.382598     0.409078
 VIB| Frequencies after removal of the rotations and translations
 VIB| Internal  Low frequencies ---  54.668      333.64      358.28    

 VIB|                        NORMAL MODES - CARTESIAN DISPLACEMENTS
 VIB|
 VIB|                         1                    2                    3
 VIB|Frequency (cm^-1)  1622.753399          4008.905886          4154.263014
 VIB|Intensities           0.000000             0.000000             0.000000
 VIB|Red.Masses (a.u.)     1.084134             1.044030             1.083952
 VIB|Frc consts (a.u.)     0.019247             0.690381             0.826529
  ATOM  EL             X     Y     Z        X     Y     Z        X     Y     Z  
     1  O             0.00  0.00  0.07     0.00  0.00  0.05     0.00 -0.07  0.00
     2  H             0.00 -0.42 -0.57     0.00  0.59 -0.39     0.00  0.57 -0.42
     3  H             0.00  0.42 -0.57     0.00 -0.59 -0.39     0.00  0.57  0.42



 -------------------------------------------------------------------------------
 -                                                                             -
 -                                DBCSR STATISTICS                             -
 -                                                                             -
 -------------------------------------------------------------------------------
 COUNTER                                    TOTAL       BLAS       SMM       ACC
 flops     2 x     2 x     5                35880       0.0%    100.0%      0.0%
 flops    14 x     2 x     5                83720       0.0%    100.0%      0.0%
 flops     2 x    14 x     5                83720       0.0%    100.0%      0.0%
 flops     2 x     5 x     2               123200       0.0%    100.0%      0.0%
 flops     5 x     5 x     5               339500       0.0%    100.0%      0.0%
 flops    14 x     5 x     2               431200       0.0%    100.0%      0.0%
 flops     2 x     5 x    14               431200       0.0%    100.0%      0.0%
 flops    14 x    14 x     5               586040       0.0%    100.0%      0.0%
 flops     5 x     5 x    18               903600       0.0%    100.0%      0.0%
 flops    18 x     5 x     5              1122300       0.0%    100.0%      0.0%
 flops    14 x     5 x    14              1509200       0.0%    100.0%      0.0%
 flops    18 x     5 x    18              1782000       0.0%    100.0%      0.0%
 flops inhomo. stacks                           0       0.0%      0.0%      0.0%
 flops total                         7.431560E+06       0.0%    100.0%      0.0%
 flops max/rank                      1.889390E+06       0.0%    100.0%      0.0%
 matmuls inhomo. stacks                         0       0.0%      0.0%      0.0%
 matmuls total                              12883       0.0%    100.0%      0.0%
 number of processed stacks                  8435       0.0%    100.0%      0.0%
 average stack size                                     0.0       1.5       0.0
 marketing flops                     7.639760E+06
 -------------------------------------------------------------------------------
 # multiplications                           1340
 max memory usage/rank               1.161409E+09
 # max total images/rank                        1
 # max 3D layers                                1
 # MPI messages exchanged                       0
 -------------------------------------------------------------------------------
 -                                                                             -
 -                      DBCSR MESSAGE PASSING PERFORMANCE                      -
 -                                                                             -
 -------------------------------------------------------------------------------
 ROUTINE             CALLS      AVE VOLUME [Bytes]
 MP_Bcast               13                     12.
 MP_Allreduce         7068                      8.
 MP_Alltoall          5882                    240.
 MP_ISend             5328                     60.
 MP_IRecv             5328                     60.
 -------------------------------------------------------------------------------

 -------------------------------------------------------------------------------
 -                                                                             -
 -                                GRID STATISTICS                              -
 -                                                                             -
 -------------------------------------------------------------------------------
 LP    KERNEL             BACKEND                              COUNT     PERCENT
 0     collocate ortho    REF                                   7317      19.20%
 0     integrate ortho    REF                                   6561      17.22%
 1     integrate ortho    REF                                   5130      13.46%
 1     collocate ortho    REF                                   4878      12.80%
 2     integrate ortho    REF                                   4149      10.89%
 2     collocate ortho    REF                                   4065      10.67%
 3     integrate ortho    REF                                   1878       4.93%
 3     collocate ortho    REF                                   1626       4.27%
 0     collocate general  REF                                    626       1.64%
 0     integrate general  REF                                    570       1.50%
 4     integrate ortho    REF                                    411       1.08%
 4     collocate ortho    REF                                    271       0.71%
 2     collocate general  REF                                    271       0.71%
 2     integrate general  REF                                    243       0.64%
 1     integrate general  REF                                     56       0.15%
 5     integrate ortho    REF                                     28       0.07%
 3     integrate general  REF                                     28       0.07%
 -------------------------------------------------------------------------------

 MEMORY| Estimated peak process memory [MiB]                                1108

 -------------------------------------------------------------------------------
 ----                             MULTIGRID INFO                            ----
 -------------------------------------------------------------------------------
 count for grid        1:           5260          cutoff [a.u.]          200.00
 count for grid        2:            640          cutoff [a.u.]           66.67
 count for grid        3:            176          cutoff [a.u.]           22.22
 count for grid        4:             16          cutoff [a.u.]            7.41
 total gridlevel count  :           6092

 -------------------------------------------------------------------------------
 -                                                                             -
 -                         MESSAGE PASSING PERFORMANCE                         -
 -                                                                             -
 -------------------------------------------------------------------------------

 ROUTINE             CALLS      AVE VOLUME [Bytes]
 MP_Group                6
 MP_Bcast               70                4725059.
 MP_Allreduce          315                   2141.
 MP_Sync                 4
 -------------------------------------------------------------------------------


 -------------------------------------------------------------------------------
 -                                                                             -
 -                           R E F E R E N C E S                               -
 -                                                                             -
 -------------------------------------------------------------------------------
 
 CP2K version 9.0 (Development Version), the CP2K developers group (2021).
 CP2K is freely available from https://www.cp2k.org/ .

 Kuehne,Thomas D.; Iannuzzi,Marcella; Del Ben,Mauro;
 Rybkin,Vladimir V.; Seewald,Patrick; Stein,Frederick; Laino,Teodoro;
 Khaliullin,Rustam Z.; Schuett,Ole; Schiffmann,Florian; Golze,Dorothea;
 Wilhelm,Jan; Chulkov,Sergey; Bani-Hashemian,Mohammad Hossein;
 Weber,Valery; Borstnik,Urban; Taillefumier,Mathieu;
 Jakobovits,Alice Shoshana; Lazzaro,Alfio; Pabst,Hans; Mueller,Tiziano;
 Schade,Robert; Guidon,Manuel; Andermatt,Samuel; Holmberg,Nico;
 Schenter,Gregory K.; Hehn,Anna; Bussy,Augustin; Belleflamme,Fabian;
 Tabacchi,Gloria; Gloess,Andreas; Lass,Michael; Bethune,Iain;
 Mundy,Christopher J.; Plessl,Christian; Watkins,Matt;
 VandeVondele,Joost; Krack,Matthias; Hutter,Juerg. 
 The Journal of Chemical Physics, 152 (19), (2020). 
 CP2K: An electronic structure and molecular dynamics software package -
 Quickstep: Efficient and accurate electronic structure calculations.
 https://doi.org/10.1063/5.0007045

 Lehtola, S; Steigemann, C; Oliveira, MJT; Marques, MAL. 
 SoftwareX, 7, 1-5 (2018). 
 Recent developments in libxc - A comprehensive library of functionals
 for density functional theory.
 https://doi.org/10.1016/j.softx.2017.11.002

 Schuett, Ole; Messmer, Peter; Hutter, Juerg; VandeVondele, Joost. 
 Electronic Structure Calculations on Graphics Processing Units, John
 Wiley & Sons, Ltd, 173-190 (2016). 
 GPU-Accelerated Sparse Matrix-Matrix Multiplication for
 Linear Scaling Density Functional Theory.
 https://doi.org/10.1002/9781118670712.ch8

 Heinecke, A; Henry, G; Hutchinson, M; Pabst, H. 
 Proceedings of Intl. Supercomputing Conference, 981-991 (2016). 
 LIBXSMM: Accelerating Small Matrix Multiplications
 by Runtime Code Generation.
 https://doi.org/10.1109/SC.2016.83

 Borstnik, U; VandeVondele, J; Weber, V; Hutter, J. 
 PARALLEL COMPUTING, 40 (5-6), 47-58 (2014). 
 Sparse matrix multiplication: The distributed block-compressed sparse
 row library.
 https://doi.org/10.1016/j.parco.2014.03.012

 Hutter, J; Iannuzzi, M; Schiffmann, F; VandeVondele, J. 
 WIREs Comput Mol Sci., 4 (1), 15-25 (2014). 
 CP2K: atomistic simulations of condensed matter systems.
 https://doi.org/10.1002/wcms.1159

 Marek, A; Blum, V; Johanni, R; Havu, V; Lang, B; Auckenthaler, T;
 Heinecke, A; Bungartz, H; Lederer, H. 
 Journal of Physics: Condensed Matter, 26 (21), (2014). 
 The ELPA library: scalable parallel eigenvalue solutions for
 electronic structure
 theory and computational science.
 https://doi.org/10.1088/0953-8984/26/21/213201

 Marques, MAL; Oliveira, MJT; Burnus, T. 
 COMPUTER PHYSICS COMMUNICATIONS, 183 (10), 2272-2281 (2012). 
 LIBXC: A library of exchange and correlation functionals for density
 functional theory.
 https://doi.org/10.1016/j.cpc.2012.05.007

 Guidon, M; Hutter, J; VandeVondele, J. 
 JOURNAL OF CHEMICAL THEORY AND COMPUTATION, 5 (11), 3010-3021 (2009). 
 Robust Periodic Hartree-Fock Exchange for Large-Scale Simulations Using
 Gaussian Basis Sets.
 https://doi.org/10.1021/ct900494g

 Guidon, M; Schiffmann, F; Hutter, J; VandeVondele, J. 
 JOURNAL OF CHEMICAL PHYSICS, 128 (21), 214104 (2008). 
 Ab initio molecular dynamics using hybrid density functionals.
 https://doi.org/10.1063/1.2931945

 Kuhne, TD; Krack, M; Mohamed, FR; Parrinello, M. 
 PHYSICAL REVIEW LETTERS, 98 (6), 066401 (2007). 
 Efficient and accurate Car-Parrinello-like approach to
 Born-Oppenheimer molecular dynamics.
 https://doi.org/10.1103/PhysRevLett.98.066401

 Frigo, M; Johnson, SG. 
 PROCEEDINGS OF THE IEEE, 93 (2), 216-231 (2005). 
 The design and implementation of FFTW3.
 https://doi.org/10.1109/JPROC.2004.840301

 Kolafa, J. 
 JOURNAL OF COMPUTATIONAL CHEMISTRY, 25 (3), 335-342 (2004). 
 Time-reversible always stable predictor-corrector method for molecular dynamics of polarizable molecules.
 https://doi.org/10.1002/jcc.10385

 VandeVondele, J; Hutter, J. 
 JOURNAL OF CHEMICAL PHYSICS, 118 (10), 4365-4369 (2003). 
 An efficient orbital transformation method for electronic structure
 calculations.
 https://doi.org/10.1063/1.1543154

 Lippert, G; Hutter, J; Parrinello, M. 
 THEORETICAL CHEMISTRY ACCOUNTS, 103 (2), 124-140 (1999). 
 The Gaussian and augmented-plane-wave density functional method for ab
 initio molecular dynamics simulations.
 https://doi.org/10.1007/s002140050523

 Krack, M; Parrinello, M. 
 PHYSICAL CHEMISTRY CHEMICAL PHYSICS, 2 (10), 2105-2112 (2000). 
 All-electron ab-initio molecular dynamics.
 https://doi.org/10.1039/b001167n

 Martyna, GJ; Tuckerman, ME. 
 JOURNAL OF CHEMICAL PHYSICS, 110 (6), 2810-2821 (1999). 
 A reciprocal space based method for treating long range interactions in
 ab initio and force-field-based calculations in clusters.
 https://doi.org/10.1063/1.477923


 -------------------------------------------------------------------------------
 -                                                                             -
 -                                T I M I N G                                  -
 -                                                                             -
 -------------------------------------------------------------------------------
 SUBROUTINE                       CALLS  ASD         SELF TIME        TOTAL TIME
                                MAXIMUM       AVERAGE  MAXIMUM  AVERAGE  MAXIMUM
 CP2K                                 1  1.0    0.004    0.006  171.755  171.757
 vb_anal                              1  2.0  167.732  167.764  171.099  171.120
 -------------------------------------------------------------------------------

 The number of warnings for this run is : 0
 
 -------------------------------------------------------------------------------
  **** **** ******  **  PROGRAM ENDED AT                 2021-07-14 15:24:52.370
 ***** ** ***  *** **   PROGRAM RAN ON                                    tcpc23
 **    ****   ******    PROGRAM RAN BY                                    hsatoh
 ***** **    ** ** **   PROGRAM PROCESS ID                                  4806
  **** **  *******  **  PROGRAM STOPPED IN   /data/hsatoh/grrm17_cp2k/H2O-min-re
 DBCSR| CPU Multiplication driver                                           XSMM
 DBCSR| Multrec recursion limit                                              512
 DBCSR| Multiplication stack size                                           1000
 DBCSR| Maximum elements for images                                    UNLIMITED
 DBCSR| Multiplicative factor virtual images                                   1
 DBCSR| Use multiplication densification                                       T
 DBCSR| Multiplication size stacks                                             3
 DBCSR| Use memory pool for CPU allocation                                     F
 DBCSR| Number of 3D layers                                               SINGLE
 DBCSR| Use MPI memory allocation                                              F
 DBCSR| Use RMA algorithm                                                      F
 DBCSR| Use Communication thread                                               T
 DBCSR| Communication thread load                                             87
 DBCSR| MPI: My node id                                                        0
 DBCSR| MPI: Number of nodes                                                   4
 DBCSR| OMP: Current number of threads                                         1
 DBCSR| OMP: Max number of threads                                             1
 DBCSR| Split modifier for TAS multiplication algorithm                  1.0E+00


  **** **** ******  **  PROGRAM STARTED AT               2021-07-14 15:24:52.776
 ***** ** ***  *** **   PROGRAM STARTED ON                                tcpc23
 **    ****   ******    PROGRAM STARTED BY                                hsatoh
 ***** **    ** ** **   PROGRAM PROCESS ID                                  9096
  **** **  *******  **  PROGRAM STARTED IN   /data/hsatoh/grrm17_cp2k/H2O-min-re

 CP2K| version string:                    CP2K version 9.0 (Development Version)
 CP2K| source code revision number:                                  git:55d3731
 CP2K| cp2kflags: omp libint fftw3 libxc elpa parallel mpi3 scalapack cosma xsmm
 CP2K|             spglib sirius libvori libbqb
 CP2K| is freely available from                            https://www.cp2k.org/
 CP2K| Program compiled at                         Die Jul 13 21:12:25 CEST 2021
 CP2K| Program compiled on                                                tcpc23
 CP2K| Program compiled for                                                local
 CP2K| Data directory path                                /data/hutter/cp2k/data
 CP2K| Input file name                                         grrm_H2O_cp2k.inp

 GLOBAL| Force Environment number                                              1
 GLOBAL| Basis set file name                                     EMSL_BASIS_SETS
 GLOBAL| Potential file name                                           POTENTIAL
 GLOBAL| MM Potential file name                                     MM_POTENTIAL
 GLOBAL| Coordinate file name                                      __STD_INPUT__
 GLOBAL| Method name                                                        CP2K
 GLOBAL| Project name                                              grrm_H2O_cp2k
 GLOBAL| Run type                                                   ENERGY_FORCE
 GLOBAL| FFT library                                                       FFTW3
 GLOBAL| Diagonalization library                                            ELPA
 GLOBAL| Minimum number of eigenvectors for ELPA usage                        16
 GLOBAL| Orthonormality check for eigenvectors                          DISABLED
 GLOBAL| Matrix multiplication library                                     COSMA
 GLOBAL| All-to-all communication in single precision                          F
 GLOBAL| FFTs using library dependent lengths                                  F
 GLOBAL| Grid backend                                                       AUTO
 GLOBAL| Global print level                                               MEDIUM
 GLOBAL| MPI I/O enabled                                                       T
 GLOBAL| Total number of message passing processes                             4
 GLOBAL| Number of threads for this process                                    1
 GLOBAL| This output is from process                                           0
 GLOBAL| CPU model name                Intel(R) Xeon(R) CPU E5-2650 v4 @ 2.20GHz
 GLOBAL| CPUID                                                              1002

 MEMORY| system memory details [Kb]
 MEMORY|                        rank 0           min           max       average
 MEMORY| MemTotal            131915472     131915472     131915472     131915472
 MEMORY| MemFree              80662228      80662228      80662228      80662228
 MEMORY| Buffers                587900        587900        587900        587900
 MEMORY| Cached               44848688      44848688      44848688      44848688
 MEMORY| Slab                  3533304       3533304       3533304       3533304
 MEMORY| SReclaimable          3122176       3122176       3122176       3122176
 MEMORY| MemLikelyFree       129220992     129220992     129220992     129220992


 *** Fundamental physical constants (SI units) ***

 *** Literature: B. J. Mohr and B. N. Taylor,
 ***             CODATA recommended values of the fundamental physical
 ***             constants: 2006, Web Version 5.1
 ***             http://physics.nist.gov/constants

 Speed of light in vacuum [m/s]                             2.99792458000000E+08
 Magnetic constant or permeability of vacuum [N/A**2]       1.25663706143592E-06
 Electric constant or permittivity of vacuum [F/m]          8.85418781762039E-12
 Planck constant (h) [J*s]                                  6.62606896000000E-34
 Planck constant (h-bar) [J*s]                              1.05457162825177E-34
 Elementary charge [C]                                      1.60217648700000E-19
 Electron mass [kg]                                         9.10938215000000E-31
 Electron g factor [ ]                                     -2.00231930436220E+00
 Proton mass [kg]                                           1.67262163700000E-27
 Fine-structure constant                                    7.29735253760000E-03
 Rydberg constant [1/m]                                     1.09737315685270E+07
 Avogadro constant [1/mol]                                  6.02214179000000E+23
 Boltzmann constant [J/K]                                   1.38065040000000E-23
 Atomic mass unit [kg]                                      1.66053878200000E-27
 Bohr radius [m]                                            5.29177208590000E-11

 *** Conversion factors ***

 [u] -> [a.u.]                                              1.82288848426455E+03
 [Angstrom] -> [Bohr] = [a.u.]                              1.88972613288564E+00
 [a.u.] = [Bohr] -> [Angstrom]                              5.29177208590000E-01
 [a.u.] -> [s]                                              2.41888432650478E-17
 [a.u.] -> [fs]                                             2.41888432650478E-02
 [a.u.] -> [J]                                              4.35974393937059E-18
 [a.u.] -> [N]                                              8.23872205491840E-08
 [a.u.] -> [K]                                              3.15774647902944E+05
 [a.u.] -> [kJ/mol]                                         2.62549961709828E+03
 [a.u.] -> [kcal/mol]                                       6.27509468713739E+02
 [a.u.] -> [Pa]                                             2.94210107994716E+13
 [a.u.] -> [bar]                                            2.94210107994716E+08
 [a.u.] -> [atm]                                            2.90362800883016E+08
 [a.u.] -> [eV]                                             2.72113838565563E+01
 [a.u.] -> [Hz]                                             6.57968392072181E+15
 [a.u.] -> [1/cm] (wave numbers)                            2.19474631370540E+05
 [a.u./Bohr**2] -> [1/cm]                                   5.14048714338585E+03
 

 CELL_TOP| Volume [angstrom^3]:                                      1000.000000
 CELL_TOP| Vector a [angstrom    10.000     0.000     0.000   |a| =    10.000000
 CELL_TOP| Vector b [angstrom     0.000    10.000     0.000   |b| =    10.000000
 CELL_TOP| Vector c [angstrom     0.000     0.000    10.000   |c| =    10.000000
 CELL_TOP| Angle (b,c), alpha [degree]:                                90.000000
 CELL_TOP| Angle (a,c), beta  [degree]:                                90.000000
 CELL_TOP| Angle (a,b), gamma [degree]:                                90.000000
 CELL_TOP| Numerically orthorhombic:                                         YES

 GENERATE|  Preliminary Number of Bonds generated:                             0
 GENERATE|  Achieved consistency in connectivity generation.

 CELL| Volume [angstrom^3]:                                          1000.000000
 CELL| Vector a [angstrom]:      10.000     0.000     0.000   |a| =    10.000000
 CELL| Vector b [angstrom]:       0.000    10.000     0.000   |b| =    10.000000
 CELL| Vector c [angstrom]:       0.000     0.000    10.000   |c| =    10.000000
 CELL| Angle (b,c), alpha [degree]:                                    90.000000
 CELL| Angle (a,c), beta  [degree]:                                    90.000000
 CELL| Angle (a,b), gamma [degree]:                                    90.000000
 CELL| Numerically orthorhombic:                                             YES

 CELL_REF| Volume [angstrom^3]:                                      1000.000000
 CELL_REF| Vector a [angstrom    10.000     0.000     0.000   |a| =    10.000000
 CELL_REF| Vector b [angstrom     0.000    10.000     0.000   |b| =    10.000000
 CELL_REF| Vector c [angstrom     0.000     0.000    10.000   |c| =    10.000000
 CELL_REF| Angle (b,c), alpha [degree]:                                90.000000
 CELL_REF| Angle (a,c), beta  [degree]:                                90.000000
 CELL_REF| Angle (a,b), gamma [degree]:                                90.000000
 CELL_REF| Numerically orthorhombic:                                         YES

 *******************************************************************************
 *******************************************************************************
 **                                                                           **
 **     #####                         ##              ##                      **
 **    ##   ##            ##          ##              ##                      **
 **   ##     ##                       ##            ######                    **
 **   ##     ##  ##   ##  ##   #####  ##  ##   ####   ##    #####    #####    **
 **   ##     ##  ##   ##  ##  ##      ## ##   ##      ##   ##   ##  ##   ##   **
 **   ##  ## ##  ##   ##  ##  ##      ####     ###    ##   ######   ######    **
 **    ##  ###   ##   ##  ##  ##      ## ##      ##   ##   ##       ##        **
 **     #######   #####   ##   #####  ##  ##  ####    ##    #####   ##        **
 **           ##                                                    ##        **
 **                                                                           **
 **                                                ... make the atoms dance   **
 **                                                                           **
 **            Copyright (C) by CP2K developers group (2000-2021)             **
 **                      J. Chem. Phys. 152, 194103 (2020)                    **
 **                                                                           **
 *******************************************************************************

 DFT| Spin restricted Kohn-Sham (RKS) calculation                            RKS
 DFT| Multiplicity                                                             1
 DFT| Number of spin states                                                    1
 DFT| Charge                                                                   0
 DFT| Self-interaction correction (SIC)                                       NO
 DFT| Cutoffs: density                                              1.000000E-10
 DFT|          gradient                                             1.000000E-10
 DFT|          tau                                                  1.000000E-10
 DFT|          cutoff_smoothing_range                               0.000000E+00
 DFT| XC density smoothing                                                  NONE
 DFT| XC derivatives                                                          PW
 FUNCTIONAL| ROUTINE=NEW
 FUNCTIONAL| LIBXC Vers. 5.1.4 (Marques, Oliveira, Burnus, CPC 183, 2272 (2012))
 FUNCTIONAL| B3LYP (exchange-correlation):
 FUNCTIONAL| [1] P. J. Stephens, F. J. Devlin, C. F. Chabalowski, and M. J. Fris
 FUNCTIONAL| ch, J. Phys. Chem. 98, 11623 (1994), doi: 10.1021/j100096a001      
 FUNCTIONAL| Optional external parameters:                                      
 FUNCTIONAL|  * Fraction of exact exchange                                      
 FUNCTIONAL|  * Fraction of GGA exchange correction                             
 FUNCTIONAL|  * Fraction of GGA correlation correction                          
 FUNCTIONAL| {scale=1.000, spin-unpolarized}                                    

 QS| Method:                                                                GAPW
 QS| Density plane wave grid type                        NON-SPHERICAL FULLSPACE
 QS| Number of grid levels:                                                    4
 QS| Density cutoff [a.u.]:                                                200.0
 QS| Multi grid cutoff [a.u.]: 1) grid level                               200.0
 QS|                           2) grid level                                66.7
 QS|                           3) grid level                                22.2
 QS|                           4) grid level                                 7.4
 QS| Grid level progression factor:                                          3.0
 QS| Relative density cutoff [a.u.]:                                        35.0
 QS| Interaction thresholds: eps_pgf_orb:                                1.0E-05
 QS|                         eps_filter_matrix:                          0.0E+00
 QS|                         eps_core_charge:                            1.0E-12
 QS|                         eps_rho_gspace:                             1.0E-10
 QS|                         eps_rho_rspace:                             1.0E-10
 QS|                         eps_gvg_rspace:                             1.0E-05
 QS|                         eps_ppl:                                    1.0E-02
 QS|                         eps_ppnl:                                   1.0E-07
[...]

  GAPW| Exc from hard and soft atomic rho1:                    -4.06118115824695
  GAPW| local Eh = 1 center integrals:                         -7.76899768621484

  Total energy:                                               -76.40663611234123

  outer SCF iter =    2 RMS gradient =   0.71E-07 energy =        -76.4066361123
  outer SCF loop converged in   2 iterations or   15 steps


 !-----------------------------------------------------------------------------!
                     Mulliken Population Analysis

 #  Atom  Element  Kind  Atomic population                           Net charge
       1     O        1          8.793260                             -0.793260
       2     H        2          0.603370                              0.396630
       3     H        2          0.603370                              0.396630
 # Total charge                             10.000000                 -0.000000

 !-----------------------------------------------------------------------------!

 !-----------------------------------------------------------------------------!
                           Hirshfeld Charges

  #Atom  Element  Kind  Ref Charge     Population                    Net charge
      1       O      1       8.000          9.168                        -1.168
      2       H      2       1.000          0.415                         0.585
      3       H      2       1.000          0.415                         0.585

  Total Charge                                                            0.002
 !-----------------------------------------------------------------------------!

  HFX_MEM_INFO| Number of cart. primitive DERIV's calculated:           10244064
  HFX_MEM_INFO| Number of sph. DERIV's calculated:                        658368
  HFX_MEM_INFO| Number of sph. DERIV's stored in-core:                         0
  HFX_MEM_INFO| Number of sph. DERIV's calculated on the fly:             658368
  HFX_MEM_INFO| Total memory consumption DERIV's RAM [MiB]:                    0
  HFX_MEM_INFO| Whereof max-vals [MiB]:                                        1
  HFX_MEM_INFO| Total compression factor DERIV's RAM:                       0.00


 ENERGY| Total FORCE_EVAL ( QS ) energy [a.u.]:              -76.406636112341147

 -------------------------------------------------------------------------------
 -                                                                             -
 -                                DBCSR STATISTICS                             -
 -                                                                             -
 -------------------------------------------------------------------------------
 COUNTER                                    TOTAL       BLAS       SMM       ACC
 flops     2 x     2 x     5                 2040       0.0%    100.0%      0.0%
 flops     2 x    14 x     5                 4760       0.0%    100.0%      0.0%
 flops    14 x     2 x     5                 4760       0.0%    100.0%      0.0%
 flops     4 x     5 x     4                 5440       0.0%    100.0%      0.0%
 flops     2 x     5 x     2                 7200       0.0%    100.0%      0.0%
 flops     5 x     5 x     4                12400       0.0%    100.0%      0.0%
 flops     4 x     5 x     5                15400       0.0%    100.0%      0.0%
 flops    14 x     5 x     4                19040       0.0%    100.0%      0.0%
 flops     4 x     5 x    14                19040       0.0%    100.0%      0.0%
 flops     5 x     5 x     5                22250       0.0%    100.0%      0.0%
 flops    14 x     5 x     2                25200       0.0%    100.0%      0.0%
 flops     2 x     5 x    14                25200       0.0%    100.0%      0.0%
 flops    14 x    14 x     5                33320       0.0%    100.0%      0.0%
 flops     5 x     5 x    14                43400       0.0%    100.0%      0.0%
 flops    14 x     5 x     5                53900       0.0%    100.0%      0.0%
 flops    14 x     5 x    14               154840       0.0%    100.0%      0.0%
 flops inhomo. stacks                           0       0.0%      0.0%      0.0%
 flops total                       448.190000E+03       0.0%    100.0%      0.0%
 flops max/rank                    364.350000E+03       0.0%    100.0%      0.0%
 matmuls inhomo. stacks                         0       0.0%      0.0%      0.0%
 matmuls total                               1010       0.0%    100.0%      0.0%
 number of processed stacks                   751       0.0%    100.0%      0.0%
 average stack size                                     0.0       1.3       0.0
 marketing flops                   460.190000E+03
 -------------------------------------------------------------------------------
 # multiplications                            326
 max memory usage/rank             561.766400E+06
 # max total images/rank                        1
 # max 3D layers                                1
 # MPI messages exchanged                    2608
 MPI messages size (bytes):
  total size                       481.848000E+03
  min size                           0.000000E+00
  max size                           1.568000E+03
  average size                     184.757675E+00
 MPI breakdown and total messages size (bytes):
             size <=      128                1488                    10112
       128 < size <=     8192                1120                   471736
      8192 < size <=    32768                   0                        0
     32768 < size <=   131072                   0                        0
    131072 < size <=  4194304                   0                        0
   4194304 < size <= 16777216                   0                        0
  16777216 < size                               0                        0
 -------------------------------------------------------------------------------
 -                                                                             -
 -                      DBCSR MESSAGE PASSING PERFORMANCE                      -
 -                                                                             -
 -------------------------------------------------------------------------------
 ROUTINE             CALLS      AVE VOLUME [Bytes]
 MP_Bcast               17                     12.
 MP_Allreduce         1762                      8.
 MP_Alltoall          1460                    170.
 MP_ISend             2600                    179.
 MP_IRecv             2600                     69.
 -------------------------------------------------------------------------------

 -------------------------------------------------------------------------------
 -                                                                             -
 -                                GRID STATISTICS                              -
 -                                                                             -
 -------------------------------------------------------------------------------
 LP    KERNEL             BACKEND                              COUNT     PERCENT
 0     collocate ortho    REF                                    432      19.23%
 0     integrate ortho    REF                                    405      18.03%
 1     integrate ortho    REF                                    297      13.22%
 1     collocate ortho    REF                                    288      12.82%
 2     integrate ortho    REF                                    243      10.82%
 2     collocate ortho    REF                                    240      10.69%
 3     integrate ortho    REF                                    105       4.67%
 3     collocate ortho    REF                                     96       4.27%
 0     collocate general  REF                                     35       1.56%
 0     integrate general  REF                                     33       1.47%
 4     integrate ortho    REF                                     21       0.93%
 4     collocate ortho    REF                                     16       0.71%
 2     collocate general  REF                                     16       0.71%
 2     integrate general  REF                                     15       0.67%
 1     integrate general  REF                                      2       0.09%
 5     integrate ortho    REF                                      1       0.04%
 3     integrate general  REF                                      1       0.04%
 -------------------------------------------------------------------------------

 MEMORY| Estimated peak process memory [MiB]                                 538

 -------------------------------------------------------------------------------
 ----                             MULTIGRID INFO                            ----
 -------------------------------------------------------------------------------
 count for grid        1:           5295          cutoff [a.u.]          200.00
 count for grid        2:            666          cutoff [a.u.]           66.67
 count for grid        3:            182          cutoff [a.u.]           22.22
 count for grid        4:             16          cutoff [a.u.]            7.41
 total gridlevel count  :           6159

 -------------------------------------------------------------------------------
 -                                                                             -
 -                         MESSAGE PASSING PERFORMANCE                         -
 -                                                                             -
 -------------------------------------------------------------------------------

 ROUTINE             CALLS      AVE VOLUME [Bytes]
 MP_Group                5
 MP_Bcast              311                1064615.
 MP_Allreduce          973                    904.
 MP_Sync               108
 MP_Alltoall           289               21854559.
 MP_ISendRecv          597                1482660.
 MP_Wait               597
 MP_Recv                 1                    432.
 -------------------------------------------------------------------------------


 -------------------------------------------------------------------------------
 -                                                                             -
 -                           R E F E R E N C E S                               -
 -                                                                             -
 -------------------------------------------------------------------------------
 
 CP2K version 9.0 (Development Version), the CP2K developers group (2021).
 CP2K is freely available from https://www.cp2k.org/ .

 Kuehne,Thomas D.; Iannuzzi,Marcella; Del Ben,Mauro;
 Rybkin,Vladimir V.; Seewald,Patrick; Stein,Frederick; Laino,Teodoro;
 Khaliullin,Rustam Z.; Schuett,Ole; Schiffmann,Florian; Golze,Dorothea;
 Wilhelm,Jan; Chulkov,Sergey; Bani-Hashemian,Mohammad Hossein;
 Weber,Valery; Borstnik,Urban; Taillefumier,Mathieu;
 Jakobovits,Alice Shoshana; Lazzaro,Alfio; Pabst,Hans; Mueller,Tiziano;
 Schade,Robert; Guidon,Manuel; Andermatt,Samuel; Holmberg,Nico;
 Schenter,Gregory K.; Hehn,Anna; Bussy,Augustin; Belleflamme,Fabian;
 Tabacchi,Gloria; Gloess,Andreas; Lass,Michael; Bethune,Iain;
 Mundy,Christopher J.; Plessl,Christian; Watkins,Matt;
 VandeVondele,Joost; Krack,Matthias; Hutter,Juerg. 
 The Journal of Chemical Physics, 152 (19), (2020). 
 CP2K: An electronic structure and molecular dynamics software package -
 Quickstep: Efficient and accurate electronic structure calculations.
 https://doi.org/10.1063/5.0007045

 Lehtola, S; Steigemann, C; Oliveira, MJT; Marques, MAL. 
 SoftwareX, 7, 1-5 (2018). 
 Recent developments in libxc - A comprehensive library of functionals
 for density functional theory.
 https://doi.org/10.1016/j.softx.2017.11.002

 Schuett, Ole; Messmer, Peter; Hutter, Juerg; VandeVondele, Joost. 
 Electronic Structure Calculations on Graphics Processing Units, John
 Wiley & Sons, Ltd, 173-190 (2016). 
 GPU-Accelerated Sparse Matrix-Matrix Multiplication for
 Linear Scaling Density Functional Theory.
 https://doi.org/10.1002/9781118670712.ch8

 Heinecke, A; Henry, G; Hutchinson, M; Pabst, H. 
 Proceedings of Intl. Supercomputing Conference, 981-991 (2016). 
 LIBXSMM: Accelerating Small Matrix Multiplications
 by Runtime Code Generation.
 https://doi.org/10.1109/SC.2016.83

 Borstnik, U; VandeVondele, J; Weber, V; Hutter, J. 
 PARALLEL COMPUTING, 40 (5-6), 47-58 (2014). 
 Sparse matrix multiplication: The distributed block-compressed sparse
 row library.
 https://doi.org/10.1016/j.parco.2014.03.012

 Hutter, J; Iannuzzi, M; Schiffmann, F; VandeVondele, J. 
 WIREs Comput Mol Sci., 4 (1), 15-25 (2014). 
 CP2K: atomistic simulations of condensed matter systems.
 https://doi.org/10.1002/wcms.1159

 Marek, A; Blum, V; Johanni, R; Havu, V; Lang, B; Auckenthaler, T;
 Heinecke, A; Bungartz, H; Lederer, H. 
 Journal of Physics: Condensed Matter, 26 (21), (2014). 
 The ELPA library: scalable parallel eigenvalue solutions for
 electronic structure
 theory and computational science.
 https://doi.org/10.1088/0953-8984/26/21/213201

 Marques, MAL; Oliveira, MJT; Burnus, T. 
 COMPUTER PHYSICS COMMUNICATIONS, 183 (10), 2272-2281 (2012). 
 LIBXC: A library of exchange and correlation functionals for density
 functional theory.
 https://doi.org/10.1016/j.cpc.2012.05.007

 Guidon, M; Hutter, J; VandeVondele, J. 
 JOURNAL OF CHEMICAL THEORY AND COMPUTATION, 5 (11), 3010-3021 (2009). 
 Robust Periodic Hartree-Fock Exchange for Large-Scale Simulations Using
 Gaussian Basis Sets.
 https://doi.org/10.1021/ct900494g

 Guidon, M; Schiffmann, F; Hutter, J; VandeVondele, J. 
 JOURNAL OF CHEMICAL PHYSICS, 128 (21), 214104 (2008). 
 Ab initio molecular dynamics using hybrid density functionals.
 https://doi.org/10.1063/1.2931945

 Frigo, M; Johnson, SG. 
 PROCEEDINGS OF THE IEEE, 93 (2), 216-231 (2005). 
 The design and implementation of FFTW3.
 https://doi.org/10.1109/JPROC.2004.840301

 VandeVondele, J; Hutter, J. 
 JOURNAL OF CHEMICAL PHYSICS, 118 (10), 4365-4369 (2003). 
 An efficient orbital transformation method for electronic structure
 calculations.
 https://doi.org/10.1063/1.1543154

 Lippert, G; Hutter, J; Parrinello, M. 
 THEORETICAL CHEMISTRY ACCOUNTS, 103 (2), 124-140 (1999). 
 The Gaussian and augmented-plane-wave density functional method for ab
 initio molecular dynamics simulations.
 https://doi.org/10.1007/s002140050523

 Krack, M; Parrinello, M. 
 PHYSICAL CHEMISTRY CHEMICAL PHYSICS, 2 (10), 2105-2112 (2000). 
 All-electron ab-initio molecular dynamics.
 https://doi.org/10.1039/b001167n

 Martyna, GJ; Tuckerman, ME. 
 JOURNAL OF CHEMICAL PHYSICS, 110 (6), 2810-2821 (1999). 
 A reciprocal space based method for treating long range interactions in
 ab initio and force-field-based calculations in clusters.
 https://doi.org/10.1063/1.477923


 -------------------------------------------------------------------------------
 -                                                                             -
 -                                T I M I N G                                  -
 -                                                                             -
 -------------------------------------------------------------------------------
 SUBROUTINE                       CALLS  ASD         SELF TIME        TOTAL TIME
                                MAXIMUM       AVERAGE  MAXIMUM  AVERAGE  MAXIMUM
 CP2K                                 1  1.0    0.006    0.007   19.877   19.878
 qs_forces                            1  2.0    0.000    0.000   19.246   19.246
 qs_energies                          1  3.0    0.000    0.000   18.081   18.082
 scf_env_do_scf                       1  4.0    0.000    0.000   17.853   17.853
 rebuild_ks_matrix                   16  6.8    0.000    0.000   16.753   16.753
 qs_ks_build_kohn_sham_matrix        16  7.8    0.002    0.003   16.753   16.753
 qs_ks_update_qs_env                 17  6.0    0.000    0.000   15.590   15.591
 scf_env_do_scf_inner_loop           15  5.0    0.000    0.001   15.128   15.129
 pw_transfer                        337 10.5    0.018    0.020   11.314   12.901
 fft_wrap_pw1pw2                    289 11.6    0.003    0.003   11.229   12.818
 fft_wrap_pw1pw2_200                192 12.7    0.626    0.640   10.778   12.384
 fft3d_ps                           289 13.6    5.418    5.573    8.634   10.231
 qs_vxc_create                       16  8.8    0.000    0.000    9.954    9.954
 xc_vxc_pw_create                    16  9.8    0.148    0.151    9.954    9.954
 xc_rho_set_and_dset_create          16 10.8    0.027    0.027    4.959    6.485
 xc_functional_eval                  48 11.2    0.000    0.000    2.909    4.617
 libxc_lda_eval                      48 12.2    2.908    4.617    2.908    4.617
 mp_alltoall_z22v                   289 15.6    2.603    4.196    2.603    4.196
 yz_to_x                            145 14.1    0.283    0.311    2.347    3.968
 init_scf_loop                        2  5.0    0.000    0.000    2.724    2.724
 qs_rho_update_rho                   16  6.0    0.000    0.000    2.261    2.261
 calculate_rho_elec                  16  7.0    0.038    0.039    2.259    2.259
 mp_sum_d                           831  5.9    1.227    2.141    1.227    2.141
 density_rs2pw                       16  8.0    0.001    0.001    2.064    2.078
 calculate_vxc_atom                  16  8.8    0.106    0.270    2.045    2.045
 prepare_gapw_den                    16  8.8    0.000    0.000    1.359    1.367
 sum_up_and_integrate                16  8.8    0.014    0.015    1.231    1.234
 integrate_v_rspace                  16  9.8    0.000    0.000    1.217    1.220
 potential_pw2rs                     16 10.8    0.002    0.002    1.204    1.204
 qs_ks_update_qs_env_forces           1  3.0    0.000    0.000    1.163    1.163
 put_rho0_on_grid                    16  9.8    0.039    0.040    1.151    1.159
 gaVxcgb_GC                          16  9.8    0.321    1.115    0.321    1.115
 pw_gather_p                        145 13.1    1.093    1.104    1.093    1.104
 rs_pw_transfer                     162 10.4    0.002    0.002    1.026    1.036
 x_to_yz                            144 15.1    0.324    0.329    0.862    0.976
 pw_scatter_p                       144 14.1    0.832    0.845    0.832    0.845
 vxc_of_r_new                        32  9.8    0.010    0.014    0.504    0.687
 qs_init_subsys                       1  2.0    0.001    0.001    0.573    0.573
 qs_env_setup                         1  3.0    0.000    0.000    0.568    0.569
 qs_env_rebuild_pw_env                3  3.7    0.000    0.000    0.568    0.569
 pw_env_rebuild                       1  5.0    0.000    0.000    0.568    0.569
 pw_grid_setup                        5  6.0    0.000    0.000    0.562    0.562
 pw_grid_setup_internal               5  7.0    0.008    0.009    0.562    0.562
 hfx_ks_matrix                       16  8.8    0.000    0.000    0.522    0.522
 rs_pw_transfer_RS2PW_200            33 10.8    0.292    0.298    0.503    0.509
 pw_poisson_solve                    16  8.8    0.067    0.068    0.486    0.486
 mp_waitall_1                     11029 15.1    0.467    0.476    0.467    0.476
 pw_grid_sort                         5  8.0    0.353    0.356    0.463    0.467
 rs_pw_transfer_PW2RS_200            33 11.7    0.220    0.224    0.428    0.432
 -------------------------------------------------------------------------------

 The number of warnings for this run is : 0
 
 -------------------------------------------------------------------------------
  **** **** ******  **  PROGRAM ENDED AT                 2021-07-14 15:25:55.245
 ***** ** ***  *** **   PROGRAM RAN ON                                    tcpc23
 **    ****   ******    PROGRAM RAN BY                                    hsatoh
 ***** **    ** ** **   PROGRAM PROCESS ID                                 10109
  **** **  *******  **  PROGRAM STOPPED IN   /data/hsatoh/grrm17_cp2k/H2O-min-re
