
  **** **** ******  **  PROGRAM STARTED AT               2021-07-14 15:22:00.225
 ***** ** ***  *** **   PROGRAM STARTED ON                                tcpc23
 **    ****   ******    PROGRAM STARTED BY                                hsatoh
 ***** **    ** ** **   PROGRAM PROCESS ID                                  4807
  **** **  *******  **  PROGRAM STARTED IN   /data/hsatoh/grrm17_cp2k/H2O-min-re

 CP2K| version string:                    CP2K version 9.0 (Development Version)
 CP2K| source code revision number:                                  git:55d3731
 CP2K| cp2kflags: omp libint fftw3 libxc elpa parallel mpi3 scalapack cosma xsmm
 CP2K|             spglib sirius libvori libbqb
 CP2K| is freely available from                            https://www.cp2k.org/
 CP2K| Program compiled at                         Die Jul 13 21:12:25 CEST 2021
 CP2K| Program compiled on                                                tcpc23
 CP2K| Program compiled for                                                local
 CP2K| Data directory path                                /data/hutter/cp2k/data
 CP2K| Input file name                                     grrm_H2O_cp2k-r-1.inp

 GLOBAL| Force Environment number                                              1
 GLOBAL| Basis set file name                                     EMSL_BASIS_SETS
 GLOBAL| Potential file name                                           POTENTIAL
 GLOBAL| MM Potential file name                                     MM_POTENTIAL
 GLOBAL| Coordinate file name                                      __STD_INPUT__
 GLOBAL| Method name                                                        CP2K
 GLOBAL| Project name                                          grrm_H2O_cp2k-r-1
 GLOBAL| Run type                                           VIBRATIONAL_ANALYSIS
 GLOBAL| FFT library                                                       FFTW3
 GLOBAL| Diagonalization library                                            ELPA
 GLOBAL| Minimum number of eigenvectors for ELPA usage                        16
 GLOBAL| Orthonormality check for eigenvectors                          DISABLED
 GLOBAL| Matrix multiplication library                                     COSMA
 GLOBAL| All-to-all communication in single precision                          F
 GLOBAL| FFTs using library dependent lengths                                  F
 GLOBAL| Grid backend                                                       AUTO
 GLOBAL| Global print level                                               MEDIUM
 GLOBAL| MPI I/O enabled                                                       T
 GLOBAL| Total number of message passing processes                             1
 GLOBAL| Number of threads for this process                                    1
 GLOBAL| This output is from process                                           0
 GLOBAL| CPU model name                Intel(R) Xeon(R) CPU E5-2650 v4 @ 2.20GHz
 GLOBAL| CPUID                                                              1002

 MEMORY| system memory details [Kb]
 MEMORY|                        rank 0           min           max       average
 MEMORY| MemTotal            131915472     131915472     131915472     131915472
 MEMORY| MemFree              80845420      80845420      80845420      80845420
 MEMORY| Buffers                587888        587888        587888        587888
 MEMORY| Cached               44568124      44568124      44568124      44568124
 MEMORY| Slab                  3523256       3523256       3523256       3523256
 MEMORY| SReclaimable          3112064       3112064       3112064       3112064
 MEMORY| MemLikelyFree       129113496     129113496     129113496     129113496


 *** Fundamental physical constants (SI units) ***

 *** Literature: B. J. Mohr and B. N. Taylor,
 ***             CODATA recommended values of the fundamental physical
 ***             constants: 2006, Web Version 5.1
 ***             http://physics.nist.gov/constants

 Speed of light in vacuum [m/s]                             2.99792458000000E+08
 Magnetic constant or permeability of vacuum [N/A**2]       1.25663706143592E-06
 Electric constant or permittivity of vacuum [F/m]          8.85418781762039E-12
 Planck constant (h) [J*s]                                  6.62606896000000E-34
 Planck constant (h-bar) [J*s]                              1.05457162825177E-34
 Elementary charge [C]                                      1.60217648700000E-19
 Electron mass [kg]                                         9.10938215000000E-31
 Electron g factor [ ]                                     -2.00231930436220E+00
 Proton mass [kg]                                           1.67262163700000E-27
 Fine-structure constant                                    7.29735253760000E-03
 Rydberg constant [1/m]                                     1.09737315685270E+07
 Avogadro constant [1/mol]                                  6.02214179000000E+23
 Boltzmann constant [J/K]                                   1.38065040000000E-23
 Atomic mass unit [kg]                                      1.66053878200000E-27
 Bohr radius [m]                                            5.29177208590000E-11

 *** Conversion factors ***

 [u] -> [a.u.]                                              1.82288848426455E+03
 [Angstrom] -> [Bohr] = [a.u.]                              1.88972613288564E+00
 [a.u.] = [Bohr] -> [Angstrom]                              5.29177208590000E-01
 [a.u.] -> [s]                                              2.41888432650478E-17
 [a.u.] -> [fs]                                             2.41888432650478E-02
 [a.u.] -> [J]                                              4.35974393937059E-18
 [a.u.] -> [N]                                              8.23872205491840E-08
 [a.u.] -> [K]                                              3.15774647902944E+05
 [a.u.] -> [kJ/mol]                                         2.62549961709828E+03
 [a.u.] -> [kcal/mol]                                       6.27509468713739E+02
 [a.u.] -> [Pa]                                             2.94210107994716E+13
 [a.u.] -> [bar]                                            2.94210107994716E+08
 [a.u.] -> [atm]                                            2.90362800883016E+08
 [a.u.] -> [eV]                                             2.72113838565563E+01
 [a.u.] -> [Hz]                                             6.57968392072181E+15
 [a.u.] -> [1/cm] (wave numbers)                            2.19474631370540E+05
 [a.u./Bohr**2] -> [1/cm]                                   5.14048714338585E+03
 

 CELL_TOP| Volume [angstrom^3]:                                      1000.000000
 CELL_TOP| Vector a [angstrom    10.000     0.000     0.000   |a| =    10.000000
 CELL_TOP| Vector b [angstrom     0.000    10.000     0.000   |b| =    10.000000
 CELL_TOP| Vector c [angstrom     0.000     0.000    10.000   |c| =    10.000000
 CELL_TOP| Angle (b,c), alpha [degree]:                                90.000000
 CELL_TOP| Angle (a,c), beta  [degree]:                                90.000000
 CELL_TOP| Angle (a,b), gamma [degree]:                                90.000000
 CELL_TOP| Numerically orthorhombic:                                         YES

 GENERATE|  Preliminary Number of Bonds generated:                             0
 GENERATE|  Achieved consistency in connectivity generation.

 CELL| Volume [angstrom^3]:                                          1000.000000
 CELL| Vector a [angstrom]:      10.000     0.000     0.000   |a| =    10.000000
 CELL| Vector b [angstrom]:       0.000    10.000     0.000   |b| =    10.000000
 CELL| Vector c [angstrom]:       0.000     0.000    10.000   |c| =    10.000000
 CELL| Angle (b,c), alpha [degree]:                                    90.000000
 CELL| Angle (a,c), beta  [degree]:                                    90.000000
 CELL| Angle (a,b), gamma [degree]:                                    90.000000
 CELL| Numerically orthorhombic:                                             YES

 CELL_REF| Volume [angstrom^3]:                                      1000.000000
 CELL_REF| Vector a [angstrom    10.000     0.000     0.000   |a| =    10.000000
 CELL_REF| Vector b [angstrom     0.000    10.000     0.000   |b| =    10.000000
 CELL_REF| Vector c [angstrom     0.000     0.000    10.000   |c| =    10.000000
 CELL_REF| Angle (b,c), alpha [degree]:                                90.000000
 CELL_REF| Angle (a,c), beta  [degree]:                                90.000000
 CELL_REF| Angle (a,b), gamma [degree]:                                90.000000
 CELL_REF| Numerically orthorhombic:                                         YES

 *******************************************************************************
 *******************************************************************************
 **                                                                           **
 **     #####                         ##              ##                      **
 **    ##   ##            ##          ##              ##                      **
 **   ##     ##                       ##            ######                    **
 **   ##     ##  ##   ##  ##   #####  ##  ##   ####   ##    #####    #####    **
 **   ##     ##  ##   ##  ##  ##      ## ##   ##      ##   ##   ##  ##   ##   **
 **   ##  ## ##  ##   ##  ##  ##      ####     ###    ##   ######   ######    **
 **    ##  ###   ##   ##  ##  ##      ## ##      ##   ##   ##       ##        **
 **     #######   #####   ##   #####  ##  ##  ####    ##    #####   ##        **
 **           ##                                                    ##        **
 **                                                                           **
 **                                                ... make the atoms dance   **
 **                                                                           **
 **            Copyright (C) by CP2K developers group (2000-2021)             **
 **                      J. Chem. Phys. 152, 194103 (2020)                    **
 **                                                                           **
 *******************************************************************************

 DFT| Spin restricted Kohn-Sham (RKS) calculation                            RKS
 DFT| Multiplicity                                                             1
 DFT| Number of spin states                                                    1
 DFT| Charge                                                                   0
 DFT| Self-interaction correction (SIC)                                       NO
 DFT| Cutoffs: density                                              1.000000E-10
 DFT|          gradient                                             1.000000E-10
 DFT|          tau                                                  1.000000E-10
 DFT|          cutoff_smoothing_range                               0.000000E+00
 DFT| XC density smoothing                                                  NONE
 DFT| XC derivatives                                                          PW
 FUNCTIONAL| ROUTINE=NEW
 FUNCTIONAL| LIBXC Vers. 5.1.4 (Marques, Oliveira, Burnus, CPC 183, 2272 (2012))
 FUNCTIONAL| B3LYP (exchange-correlation):
 FUNCTIONAL| [1] P. J. Stephens, F. J. Devlin, C. F. Chabalowski, and M. J. Fris
 FUNCTIONAL| ch, J. Phys. Chem. 98, 11623 (1994), doi: 10.1021/j100096a001      
 FUNCTIONAL| Optional external parameters:                                      
 FUNCTIONAL|  * Fraction of exact exchange                                      
 FUNCTIONAL|  * Fraction of GGA exchange correction                             
 FUNCTIONAL|  * Fraction of GGA correlation correction                          
 FUNCTIONAL| {scale=1.000, spin-unpolarized}                                    

 QS| Method:                                                                GAPW
 QS| Density plane wave grid type                        NON-SPHERICAL FULLSPACE
 QS| Number of grid levels:                                                    4
 QS| Density cutoff [a.u.]:                                                200.0
 QS| Multi grid cutoff [a.u.]: 1) grid level                               200.0
 QS|                           2) grid level                                66.7
 QS|                           3) grid level                                22.2
 QS|                           4) grid level                                 7.4
 QS| Grid level progression factor:                                          3.0
 QS| Relative density cutoff [a.u.]:                                        35.0
 QS| Interaction thresholds: eps_pgf_orb:                                1.0E-05
 QS|                         eps_filter_matrix:                          0.0E+00
 QS|                         eps_core_charge:                            1.0E-12
 QS|                         eps_rho_gspace:                             1.0E-10
 QS|                         eps_rho_rspace:                             1.0E-10
 QS|                         eps_gvg_rspace:                             1.0E-05
 QS|                         eps_ppl:                                    1.0E-02
 QS|                         eps_ppnl:                                   1.0E-07
 QS| GAPW|                   eps_fit:                                    1.0E-04
 QS| GAPW|                   eps_iso:                                    1.0E-12
 QS| GAPW|                   eps_svd:                                    1.0E-08
 QS| GAPW|                   eps_cpc:                                    1.0E-10
 QS| GAPW|   atom-r-grid: quadrature:                                     GC_LOG
 QS| GAPW|      atom-s-grid:  max l :                                          4
 QS| GAPW|      max_l_rho0 :                                                   2


 ATOMIC KIND INFORMATION

  1. Atomic kind: O                                     Number of atoms:       1

     Orbital Basis Set                                                    6-31Gx

       Number of orbital shell sets:                                           4
       Number of orbital shells:                                               6
       Number of primitive Cartesian functions:                               11
       Number of Cartesian basis functions:                                   15
       Number of spherical basis functions:                                   14
       Norm type:                                                              2

       Normalised Cartesian orbitals:

                        Set   Shell   Orbital            Exponent    Coefficient

                          1       1    1s             5484.671700       0.831735
                                                       825.234950       1.530807
                                                       188.046960       2.477149
                                                        52.964500       3.256280
                                                        16.897570       2.792894
                                                         5.799635       0.954938

                          2       1    1s               15.539616      -0.617934
                                                         3.599934      -0.275721
                                                         1.013762       0.814208

                          2       2    2px              15.539616       3.116946
                                                         3.599934       2.401437
                                                         1.013762       1.054361
                          2       2    2py              15.539616       3.116946
                                                         3.599934       2.401437
                                                         1.013762       1.054361
                          2       2    2pz              15.539616       3.116946
                                                         3.599934       2.401437
                                                         1.013762       1.054361

                          3       1    1s                0.270006       0.266956

                          3       2    2px               0.270006       0.277432
                          3       2    2py               0.270006       0.277432
                          3       2    2pz               0.270006       0.277432

                          4       1    1dx2              0.800000       1.113825
                          4       1    1dxy              0.800000       1.929201
                          4       1    1dxz              0.800000       1.929201
                          4       1    1dy2              0.800000       1.113825
                          4       1    1dyz              0.800000       1.929201
                          4       1    1dz2              0.800000       1.113825

       Atomic covalent radius [Angstrom]:                                  0.730

       Atomic van der Waals radius [Angstrom]:                             1.520

     The atoms of this atomic kind are PAW atoms (GAPW):
       Hard Gaussian function radius:                                      1.512
       Rho0 radius:                                                        1.512
       Maximum GTO radius used for PAW projector construction:            24.566

     GAPW Soft Basis Set                                             6-31Gx_soft

       Number of orbital shell sets:                                           4
       Number of orbital shells:                                               6
       Number of primitive Cartesian functions:                                4
       Number of Cartesian basis functions:                                   15
       Number of spherical basis functions:                                   14
       Norm type:                                                              2

       Normalised Cartesian orbitals:

                        Set   Shell   Orbital            Exponent    Coefficient

                          1       1    1s         

                          2       1    1s                3.599934      -0.275721
                                                         1.013762       0.814208

                          2       2    2px               3.599934       2.401437
                                                         1.013762       1.054361
                          2       2    2py               3.599934       2.401437
                                                         1.013762       1.054361
                          2       2    2pz               3.599934       2.401437
                                                         1.013762       1.054361

                          3       1    1s                0.270006       0.266956

                          3       2    2px               0.270006       0.277432
                          3       2    2py               0.270006       0.277432
                          3       2    2pz               0.270006       0.277432

                          4       1    1dx2              0.800000       1.113825
                          4       1    1dxy              0.800000       1.929201
                          4       1    1dxz              0.800000       1.929201
                          4       1    1dy2              0.800000       1.113825
                          4       1    1dyz              0.800000       1.929201
                          4       1    1dz2              0.800000       1.113825

     AE Potential information for                                            ALL

       Description:                                       All-electron potential
                                          Krack, Parrinello, PCCP 2, 2105 (2000)

       Gaussian exponent of the core charge distribution:               8.154466
       Electronic configuration (s p d ...):                           4   4   0

  2. Atomic kind: H                                     Number of atoms:       2

     Orbital Basis Set                                                    6-31Gx

       Number of orbital shell sets:                                           2
       Number of orbital shells:                                               2
       Number of primitive Cartesian functions:                                4
       Number of Cartesian basis functions:                                    2
       Number of spherical basis functions:                                    2
       Norm type:                                                              2

       Normalised Cartesian orbitals:

                        Set   Shell   Orbital            Exponent    Coefficient

                          1       1    1s               18.731137       0.214935
                                                         2.825394       0.364571
                                                         0.640122       0.415051

                          2       1    1s                0.161278       0.181381

       Atomic covalent radius [Angstrom]:                                  0.320

       Atomic van der Waals radius [Angstrom]:                             1.090

     The atoms of this atomic kind are PAW atoms (GAPW):
       Hard Gaussian function radius:                                      1.200
       Rho0 radius:                                                        1.200
       Maximum GTO radius used for PAW projector construction:            24.566

     GAPW Soft Basis Set                                             6-31Gx_soft

       Number of orbital shell sets:                                           2
       Number of orbital shells:                                               2
       Number of primitive Cartesian functions:                                3
       Number of Cartesian basis functions:                                    2
       Number of spherical basis functions:                                    2
       Norm type:                                                              2

       Normalised Cartesian orbitals:

                        Set   Shell   Orbital            Exponent    Coefficient

                          1       1    1s                2.825394       0.364571
                                                         0.640122       0.415051

                          2       1    1s                0.161278       0.181381

     AE Potential information for                                            ALL

       Description:                                       All-electron potential
                                          Krack, Parrinello, PCCP 2, 2105 (2000)

       Gaussian exponent of the core charge distribution:              12.500000
       Electronic configuration (s p d ...):                           1   0   0


 MOLECULE KIND INFORMATION


 All atoms are their own molecule, skipping detailed information


 TOTAL NUMBERS AND MAXIMUM NUMBERS

  Total number of            - Atomic kinds:                                   2
                             - Atoms:                                          3
                             - Shell sets:                                     8
                             - Shells:                                        10
                             - Primitive Cartesian functions:                 19
                             - Cartesian basis functions:                     19
                             - Spherical basis functions:                     18

  Maximum angular momentum of the orbital basis functions:                     2


 MODULE QUICKSTEP:  ATOMIC COORDINATES IN angstrom

 Atom  Kind  Element       X           Y           Z          Z(eff)       Mass
    1   1 O    8       0.000000    0.000000    0.113399       8.0000     15.9994
    2   2 H    1       0.000000    0.759328   -0.453596       1.0000      1.0079
    3   2 H    1       0.000000   -0.759328   -0.453596       1.0000      1.0079




 SCF PARAMETERS         Density guess:                                    ATOMIC
                        --------------------------------------------------------
                        max_scf:                                              10
                        max_scf_history:                                       0
                        max_diis:                                              4
                        --------------------------------------------------------
                        eps_scf:                                        1.00E-07
                        eps_scf_history:                                0.00E+00
                        eps_diis:                                       1.00E-01
                        eps_eigval:                                     1.00E-05
                        --------------------------------------------------------
                        level_shift [a.u.]:                                 0.00
                        --------------------------------------------------------
                        Outer loop SCF in use 
                        No variables optimised in outer loop
                        eps_scf                                         1.00E-07
                        max_scf                                               10
                        No outer loop optimization
                        step_size                                       5.00E-01

 PW_GRID| Information for grid number                                          6
 PW_GRID| Cutoff [a.u.]                                                    400.0
 PW_GRID| spherical cutoff:                                                   NO
 PW_GRID|   Bounds   1            -90      89                Points:         180
 PW_GRID|   Bounds   2            -90      89                Points:         180
 PW_GRID|   Bounds   3            -90      89                Points:         180
 PW_GRID| Volume element (a.u.^3)  0.1157E-02     Volume (a.u.^3)      6748.3346
 PW_GRID| Grid span                                                    FULLSPACE

 PW_GRID| Information for grid number                                          7
 PW_GRID| Number of the reference grid                                         6
 PW_GRID| Cutoff [a.u.]                                                    200.0
 PW_GRID| spherical cutoff:                                                   NO
 PW_GRID|   Bounds   1            -62      62                Points:         125
 PW_GRID|   Bounds   2            -62      62                Points:         125
 PW_GRID|   Bounds   3            -62      62                Points:         125
 PW_GRID| Volume element (a.u.^3)  0.3455E-02     Volume (a.u.^3)      6748.3346
 PW_GRID| Grid span                                                    FULLSPACE

 PW_GRID| Information for grid number                                          8
 PW_GRID| Number of the reference grid                                         7
 PW_GRID| Cutoff [a.u.]                                                     66.7
 PW_GRID| spherical cutoff:                                                   NO
 PW_GRID|   Bounds   1            -36      35                Points:          72
 PW_GRID|   Bounds   2            -36      35                Points:          72
 PW_GRID|   Bounds   3            -36      35                Points:          72
 PW_GRID| Volume element (a.u.^3)  0.1808E-01     Volume (a.u.^3)      6748.3346
 PW_GRID| Grid span                                                    FULLSPACE

 PW_GRID| Information for grid number                                          9
 PW_GRID| Number of the reference grid                                         7
 PW_GRID| Cutoff [a.u.]                                                     22.2
 PW_GRID| spherical cutoff:                                                   NO
 PW_GRID|   Bounds   1            -22      22                Points:          45
 PW_GRID|   Bounds   2            -22      22                Points:          45
 PW_GRID|   Bounds   3            -22      22                Points:          45
 PW_GRID| Volume element (a.u.^3)  0.7406E-01     Volume (a.u.^3)      6748.3346
 PW_GRID| Grid span                                                    FULLSPACE

 PW_GRID| Information for grid number                                         10
 PW_GRID| Number of the reference grid                                         7
 PW_GRID| Cutoff [a.u.]                                                      7.4
 PW_GRID| spherical cutoff:                                                   NO
 PW_GRID|   Bounds   1            -12      11                Points:          24
 PW_GRID|   Bounds   2            -12      11                Points:          24
 PW_GRID|   Bounds   3            -12      11                Points:          24
 PW_GRID| Volume element (a.u.^3)  0.4882         Volume (a.u.^3)      6748.3346
 PW_GRID| Grid span                                                    FULLSPACE

 POISSON| Solver                                          Martyna-Tuckerman (MT)
 POISSON| MT| Alpha                                                        7.000
 POISSON| MT| Relative cutoff                                                2.0
 POISSON| Periodicity                                                       NONE

 RS_GRID| Information for grid number                                          7
 RS_GRID|   Bounds   1            -62      62                Points:         125
 RS_GRID|   Bounds   2            -62      62                Points:         125
 RS_GRID|   Bounds   3            -62      62                Points:         125

 RS_GRID| Information for grid number                                          8
 RS_GRID|   Bounds   1            -36      35                Points:          72
 RS_GRID|   Bounds   2            -36      35                Points:          72
 RS_GRID|   Bounds   3            -36      35                Points:          72

 RS_GRID| Information for grid number                                          9
 RS_GRID|   Bounds   1            -22      22                Points:          45
 RS_GRID|   Bounds   2            -22      22                Points:          45
 RS_GRID|   Bounds   3            -22      22                Points:          45

 RS_GRID| Information for grid number                                         10
 RS_GRID|   Bounds   1            -12      11                Points:          24
 RS_GRID|   Bounds   2            -12      11                Points:          24
 RS_GRID|   Bounds   3            -12      11                Points:          24

  HFX_INFO| Replica ID:                                                        1
  HFX_INFO| FRACTION:                                               0.2000000000
  HFX_INFO| Interaction Potential:                                       COULOMB
  HFX_INFO| EPS_SCHWARZ:                                                 1.0E-12
  HFX_INFO| EPS_SCHWARZ_FORCES                                           1.0E-10
  HFX_INFO| EPS_STORAGE_SCALING:                                         1.0E+00
  HFX_INFO| NBINS:                                                            64
  HFX_INFO| BLOCK_SIZE:                                                        1
  HFX_INFO| Number of periodic shells considered:                           NONE
  HFX_INFO| Number of periodic cells considered:                            NONE


 Number of electrons:                                                         10
 Number of occupied orbitals:                                                  5
 Number of molecular orbitals:                                                 5

 Number of orbital functions:                                                 18
 Number of independent orbital functions:                                     18

 Extrapolation method: initial_guess

 Atomic guess: The first density matrix is obtained in terms of atomic orbitals
               and electronic configurations assigned to each atomic kind

 Guess for atomic kind: O

 Electronic structure
    Total number of core electrons                                          0.00
    Total number of valence electrons                                       8.00
    Total number of electrons                                               8.00
    Multiplicity                                                   not specified
    S      2.00  2.00
    P      4.00


 *******************************************************************************
                  Iteration          Convergence                     Energy [au]
 *******************************************************************************
                          1        0.655772                     -74.365044926440
                          2        0.591398                     -74.373070150969
                          3        0.314610E-02                 -74.426128066435
                          4        0.143414E-03                 -74.426129509314
                          5        0.146754E-07                 -74.426129512300

 Energy components [Hartree]           Total Energy ::          -74.426129512300
                                        Band Energy ::          -40.441471787776
                                     Kinetic Energy ::           74.391638252481
                                   Potential Energy ::         -148.817767764781
                                      Virial (-V/T) ::            2.000463644310
                                        Core Energy ::         -103.093738293087
                                          XC Energy ::           -7.797708756806
                                     Coulomb Energy ::           36.465317537593

 Orbital energies  State     L     Occupation   Energy[a.u.]          Energy[eV]

                       1     0          2.000     -18.744688         -510.068901
                       2     0          2.000      -0.849262          -23.109589

                       1     1          4.000      -0.313393           -8.527858


 Total Electron Density at R=0:                                       291.748413

 Guess for atomic kind: H

 Electronic structure
    Total number of core electrons                                          0.00
    Total number of valence electrons                                       1.00
    Total number of electrons                                               1.00
    Multiplicity                                                   not specified
    S      1.00


 *******************************************************************************
                  Iteration          Convergence                     Energy [au]
 *******************************************************************************
                          1        0.502404E-02                  -0.441325540056
                          2        0.522832E-03                  -0.441349393639
                          3        0.301099E-06                  -0.441349654539

 Energy components [Hartree]           Total Energy ::           -0.441349654539
                                        Band Energy ::           -0.216801172801
                                     Kinetic Energy ::            0.454184081902
                                   Potential Energy ::           -0.895533736441
                                      Virial (-V/T) ::            1.971741793966
                                        Core Energy ::           -0.496336883353
                                          XC Energy ::           -0.243413654052
                                     Coulomb Energy ::            0.298400882866

 Orbital energies  State     L     Occupation   Energy[a.u.]          Energy[eV]

                       1     0          1.000      -0.216801           -5.899460


 Total Electron Density at R=0:                                         0.248919
 Re-scaling the density matrix to get the right number of electrons
                  # Electrons              Trace(P)               Scaling factor
                           10                10.000                        1.000


 SCF WAVEFUNCTION OPTIMIZATION

  ----------------------------------- OT ---------------------------------------
  Minimizer      : DIIS                : direct inversion
                                         in the iterative subspace
                                         using   7 DIIS vectors
                                         safer DIIS on
  Preconditioner : FULL_ALL            : diagonalization, state selective
  Precond_solver : DEFAULT
  stepsize       :    0.15000000                  energy_gap     :    0.08000000
  eps_taylor     :   0.10000E-15                  max_taylor     :             4
  ----------------------------------- OT ---------------------------------------

  Step     Update method      Time    Convergence         Total energy    Change
  ------------------------------------------------------------------------------

  HFX_MEM_INFO| Est. max. program size before HFX [MiB]:                    1085
  HFX_MEM_INFO| Number of cart. primitive ERI's calculated:               861846
  HFX_MEM_INFO| Number of sph. ERI's calculated:                           54864
  HFX_MEM_INFO| Number of sph. ERI's stored in-core:                       54864
  HFX_MEM_INFO| Number of sph. ERI's stored on disk:                           0
  HFX_MEM_INFO| Number of sph. ERI's calculated on the fly:                    0
  HFX_MEM_INFO| Total memory consumption ERI's RAM [MiB]:                      1
  HFX_MEM_INFO| Whereof max-vals [MiB]:                                        1
  HFX_MEM_INFO| Total compression factor ERI's RAM:                         2.06
  HFX_MEM_INFO| Total memory consumption ERI's disk [MiB]:                     0
  HFX_MEM_INFO| Total compression factor ERI's disk:                        0.00
  HFX_MEM_INFO| Size of density/Fock matrix [MiB]:                             0
  HFX_MEM_INFO| Size of buffers [MiB]:                                         0
  HFX_MEM_INFO| Est. max. program size after HFX  [MiB]:                    1089

     1 OT DIIS     0.15E+00    3.5     0.38630518       -74.8061350699 -7.48E+01
     2 OT DIIS     0.15E+00    2.4     0.14785002       -76.1668731093 -1.36E+00
     3 OT DIIS     0.15E+00    2.4     0.04392264       -76.3891557834 -2.22E-01
     4 OT DIIS     0.15E+00    2.4     0.01412292       -76.4012363809 -1.21E-02
     5 OT DIIS     0.15E+00    2.4     0.00744441       -76.4043192338 -3.08E-03
     6 OT DIIS     0.15E+00    2.4     0.00305104       -76.4053962722 -1.08E-03
     7 OT DIIS     0.15E+00    2.4     0.00081177       -76.4056037155 -2.07E-04
     8 OT DIIS     0.15E+00    2.4     0.00026665       -76.4056163785 -1.27E-05
     9 OT DIIS     0.15E+00    2.4     0.00009182       -76.4056175926 -1.21E-06
    10 OT DIIS     0.15E+00    2.4     0.00002718       -76.4056177539 -1.61E-07

  Leaving inner SCF loop after reaching    10 steps.


  Electronic density on regular grids:         -8.0119788598        1.9880211402
  Core density on regular grids:               10.0000000000        0.0000000000
  Hard and soft densities (Lebedev):          -14.7499274928      -12.7619069890
  Total Rho_soft + Rho1_hard - Rho1_soft       -9.9999993636
  Total charge density (r-space):               0.0000006364
  Total Rho_soft + Rho0_soft (g-space):        -0.0000010194

  Overlap energy of the core charge distribution:               0.00000016640370
  Self energy of the core charge distribution:                -75.73106814560732
  Core Hamiltonian energy:                                     -5.25804895818144
  Hartree energy:                                              21.72078503595030
  Exchange-correlation energy:                                 -3.51552600560275
  Hartree-Fock Exchange energy:                                -1.79465879679188

  GAPW| Exc from hard and soft atomic rho1:                    -4.06300938750464
  GAPW| local Eh = 1 center integrals:                         -7.76409166259359

  Total energy:                                               -76.40561775392763

  outer SCF iter =    1 RMS gradient =   0.27E-04 energy =        -76.4056177539

  ----------------------------------- OT ---------------------------------------
  Minimizer      : DIIS                : direct inversion
                                         in the iterative subspace
                                         using   7 DIIS vectors
                                         safer DIIS on
  Preconditioner : FULL_ALL            : diagonalization, state selective
  Precond_solver : DEFAULT
  stepsize       :    0.15000000                  energy_gap     :    0.08000000
  eps_taylor     :   0.10000E-15                  max_taylor     :             4
  ----------------------------------- OT ---------------------------------------

  Step     Update method      Time    Convergence         Total energy    Change
  ------------------------------------------------------------------------------
     1 OT DIIS     0.15E+00    4.7     0.00001566       -76.4056177656 -1.17E-08
     2 OT DIIS     0.15E+00    2.4     0.00000723       -76.4056177680 -2.41E-09
     3 OT DIIS     0.15E+00    2.4     0.00000109       -76.4056177687 -6.59E-10
     4 OT DIIS     0.15E+00    2.4     0.00000026       -76.4056177687 -8.60E-12
     5 OT DIIS     0.15E+00    2.4     0.00000004       -76.4056177687 -3.75E-12

  *** SCF run converged in     5 steps ***


  Electronic density on regular grids:         -8.0119800376        1.9880199624
  Core density on regular grids:               10.0000000000        0.0000000000
  Hard and soft densities (Lebedev):          -14.7499181954      -12.7618988693
  Total Rho_soft + Rho1_hard - Rho1_soft       -9.9999993637
  Total charge density (r-space):               0.0000006363
  Total Rho_soft + Rho0_soft (g-space):        -0.0000010195

  Overlap energy of the core charge distribution:               0.00000016640370
  Self energy of the core charge distribution:                -75.73106814560732
  Core Hamiltonian energy:                                     -5.25799071317960
  Hartree energy:                                              21.72073731462994
  Exchange-correlation energy:                                 -3.51553451852227
  Hartree-Fock Exchange energy:                                -1.79466116917951

  GAPW| Exc from hard and soft atomic rho1:                    -4.06301117176935
  GAPW| local Eh = 1 center integrals:                         -7.76408953147246

  Total energy:                                               -76.40561776869690

  outer SCF iter =    2 RMS gradient =   0.45E-07 energy =        -76.4056177687
  outer SCF loop converged in   2 iterations or   15 steps


 !-----------------------------------------------------------------------------!
                     Mulliken Population Analysis

 #  Atom  Element  Kind  Atomic population                           Net charge
       1     O        1          8.801951                             -0.801951
       2     H        2          0.598434                              0.401566
       3     H        2          0.599616                              0.400384
 # Total charge                             10.000000                 -0.000000

 !-----------------------------------------------------------------------------!

 !-----------------------------------------------------------------------------!
                           Hirshfeld Charges

  #Atom  Element  Kind  Ref Charge     Population                    Net charge
      1       O      1       8.000          9.167                        -1.167
      2       H      2       1.000          0.416                         0.584
      3       H      2       1.000          0.415                         0.585

  Total Charge                                                            0.002
 !-----------------------------------------------------------------------------!

  HFX_MEM_INFO| Number of cart. primitive DERIV's calculated:           10246104
  HFX_MEM_INFO| Number of sph. DERIV's calculated:                        658368
  HFX_MEM_INFO| Number of sph. DERIV's stored in-core:                         0
  HFX_MEM_INFO| Number of sph. DERIV's calculated on the fly:             658368
  HFX_MEM_INFO| Total memory consumption DERIV's RAM [MiB]:                    0
  HFX_MEM_INFO| Whereof max-vals [MiB]:                                        1
  HFX_MEM_INFO| Total compression factor DERIV's RAM:                       0.00


 ENERGY| Total FORCE_EVAL ( QS ) energy [a.u.]:              -76.405617768699940

 Number of electrons:                                                         10
 Number of occupied orbitals:                                                  5
 Number of molecular orbitals:                                                 5

 Number of orbital functions:                                                 18
 Number of independent orbital functions:                                     18

 Parameters for the always stable predictor-corrector (ASPC) method:

  ASPC order: 0

  B(1) =   1.000000

 Extrapolation method: ASPC


 SCF WAVEFUNCTION OPTIMIZATION

  ----------------------------------- OT ---------------------------------------
  Minimizer      : DIIS                : direct inversion
                                         in the iterative subspace
                                         using   7 DIIS vectors
                                         safer DIIS on
  Preconditioner : FULL_ALL            : diagonalization, state selective
  Precond_solver : DEFAULT
  stepsize       :    0.15000000                  energy_gap     :    0.08000000
  eps_taylor     :   0.10000E-15                  max_taylor     :             4
  ----------------------------------- OT ---------------------------------------

  Step     Update method      Time    Convergence         Total energy    Change
  ------------------------------------------------------------------------------

  HFX_MEM_INFO| Est. max. program size before HFX [MiB]:                    1107
  HFX_MEM_INFO| Number of cart. primitive ERI's calculated:               862056
  HFX_MEM_INFO| Number of sph. ERI's calculated:                           54864
  HFX_MEM_INFO| Number of sph. ERI's stored in-core:                       54864
  HFX_MEM_INFO| Number of sph. ERI's stored on disk:                           0
  HFX_MEM_INFO| Number of sph. ERI's calculated on the fly:                    0
  HFX_MEM_INFO| Total memory consumption ERI's RAM [MiB]:                      1
  HFX_MEM_INFO| Whereof max-vals [MiB]:                                        1
  HFX_MEM_INFO| Total compression factor ERI's RAM:                         2.06
  HFX_MEM_INFO| Total memory consumption ERI's disk [MiB]:                     0
  HFX_MEM_INFO| Total compression factor ERI's disk:                        0.00
  HFX_MEM_INFO| Size of density/Fock matrix [MiB]:                             0
  HFX_MEM_INFO| Size of buffers [MiB]:                                         0
  HFX_MEM_INFO| Est. max. program size after HFX  [MiB]:                    1107

     1 OT DIIS     0.15E+00    2.2     0.00107288       -76.4054813023 -7.64E+01
     2 OT DIIS     0.15E+00    2.4     0.00046814       -76.4054918308 -1.05E-05
     3 OT DIIS     0.15E+00    2.4     0.00017117       -76.4054941126 -2.28E-06
     4 OT DIIS     0.15E+00    2.4     0.00001269       -76.4054943468 -2.34E-07
     5 OT DIIS     0.15E+00    2.4     0.00000297       -76.4054943486 -1.74E-09
     6 OT DIIS     0.15E+00    2.4     0.00000025       -76.4054943487 -1.05E-10
     7 OT DIIS     0.15E+00    2.4     0.00000004       -76.4054943487 -2.84E-12

  *** SCF run converged in     7 steps ***


  Electronic density on regular grids:         -8.0118256545        1.9881743455
  Core density on regular grids:               10.0000000000        0.0000000000
  Hard and soft densities (Lebedev):          -14.7661036221      -12.7779299168
  Total Rho_soft + Rho1_hard - Rho1_soft       -9.9999993598
  Total charge density (r-space):               0.0000006402
  Total Rho_soft + Rho0_soft (g-space):        -0.0000009868

  Overlap energy of the core charge distribution:               0.00000017435274
  Self energy of the core charge distribution:                -75.73106814560732
  Core Hamiltonian energy:                                     -5.25268337256687
  Hartree energy:                                              21.71672413571847
  Exchange-correlation energy:                                 -3.51661264841071
  Hartree-Fock Exchange energy:                                -1.79500377282542

  GAPW| Exc from hard and soft atomic rho1:                    -4.06315298501727
  GAPW| local Eh = 1 center integrals:                         -7.76369773432827

  Total energy:                                               -76.40549434868464

  outer SCF iter =    1 RMS gradient =   0.40E-07 energy =        -76.4054943487
  outer SCF loop converged in   1 iterations or    7 steps


 !-----------------------------------------------------------------------------!
                     Mulliken Population Analysis

 #  Atom  Element  Kind  Atomic population                           Net charge
       1     O        1          8.802621                             -0.802621
       2     H        2          0.598475                              0.401525
       3     H        2          0.598904                              0.401096
 # Total charge                             10.000000                  0.000000

 !-----------------------------------------------------------------------------!

 !-----------------------------------------------------------------------------!
                           Hirshfeld Charges

  #Atom  Element  Kind  Ref Charge     Population                    Net charge
      1       O      1       8.000          9.167                        -1.167
      2       H      2       1.000          0.416                         0.584
      3       H      2       1.000          0.415                         0.585

  Total Charge                                                            0.002
 !-----------------------------------------------------------------------------!

  HFX_MEM_INFO| Number of cart. primitive DERIV's calculated:           10246140
  HFX_MEM_INFO| Number of sph. DERIV's calculated:                        658368
  HFX_MEM_INFO| Number of sph. DERIV's stored in-core:                         0
  HFX_MEM_INFO| Number of sph. DERIV's calculated on the fly:             658368
  HFX_MEM_INFO| Total memory consumption DERIV's RAM [MiB]:                    0
  HFX_MEM_INFO| Whereof max-vals [MiB]:                                        1
  HFX_MEM_INFO| Total compression factor DERIV's RAM:                       0.00


 ENERGY| Total FORCE_EVAL ( QS ) energy [a.u.]:              -76.405494348682751

 Number of electrons:                                                         10
 Number of occupied orbitals:                                                  5
 Number of molecular orbitals:                                                 5

 Number of orbital functions:                                                 18
 Number of independent orbital functions:                                     18

 Parameters for the always stable predictor-corrector (ASPC) method:

  ASPC order: 0

  B(1) =   2.000000
  B(2) =  -1.000000

 Extrapolation method: ASPC


 SCF WAVEFUNCTION OPTIMIZATION

  ----------------------------------- OT ---------------------------------------
  Minimizer      : DIIS                : direct inversion
                                         in the iterative subspace
                                         using   7 DIIS vectors
                                         safer DIIS on
  Preconditioner : FULL_ALL            : diagonalization, state selective
  Precond_solver : DEFAULT
  stepsize       :    0.15000000                  energy_gap     :    0.08000000
  eps_taylor     :   0.10000E-15                  max_taylor     :             4
  ----------------------------------- OT ---------------------------------------

  Step     Update method      Time    Convergence         Total energy    Change
  ------------------------------------------------------------------------------

  HFX_MEM_INFO| Est. max. program size before HFX [MiB]:                    1107
  HFX_MEM_INFO| Number of cart. primitive ERI's calculated:               862022
  HFX_MEM_INFO| Number of sph. ERI's calculated:                           54864
  HFX_MEM_INFO| Number of sph. ERI's stored in-core:                       54864
  HFX_MEM_INFO| Number of sph. ERI's stored on disk:                           0
  HFX_MEM_INFO| Number of sph. ERI's calculated on the fly:                    0
  HFX_MEM_INFO| Total memory consumption ERI's RAM [MiB]:                      1
  HFX_MEM_INFO| Whereof max-vals [MiB]:                                        1
  HFX_MEM_INFO| Total compression factor ERI's RAM:                         2.06
  HFX_MEM_INFO| Total memory consumption ERI's disk [MiB]:                     0
  HFX_MEM_INFO| Total compression factor ERI's disk:                        0.00
  HFX_MEM_INFO| Size of density/Fock matrix [MiB]:                             0
  HFX_MEM_INFO| Size of buffers [MiB]:                                         0
  HFX_MEM_INFO| Est. max. program size after HFX  [MiB]:                    1107

     1 OT DIIS     0.15E+00    2.2     0.00149278       -76.4056320395 -7.64E+01
     2 OT DIIS     0.15E+00    2.4     0.00066044       -76.4056512427 -1.92E-05
     3 OT DIIS     0.15E+00    2.4     0.00028447       -76.4056552206 -3.98E-06
     4 OT DIIS     0.15E+00    2.4     0.00001563       -76.4056559920 -7.71E-07
     5 OT DIIS     0.15E+00    2.4     0.00000281       -76.4056559948 -2.79E-09
     6 OT DIIS     0.15E+00    2.4     0.00000025       -76.4056559949 -9.85E-11
     7 OT DIIS     0.15E+00    2.3     0.00000005       -76.4056559949 -2.07E-12

  *** SCF run converged in     7 steps ***


  Electronic density on regular grids:         -8.0119804618        1.9880195382
  Core density on regular grids:               10.0000000000        0.0000000000
  Hard and soft densities (Lebedev):          -14.7499800484      -12.7619611468
  Total Rho_soft + Rho1_hard - Rho1_soft       -9.9999993634
  Total charge density (r-space):               0.0000006366
  Total Rho_soft + Rho0_soft (g-space):        -0.0000010190

  Overlap energy of the core charge distribution:               0.00000016462090
  Self energy of the core charge distribution:                -75.73106814560732
  Core Hamiltonian energy:                                     -5.25805820291466
  Hartree energy:                                              21.72075632071005
  Exchange-correlation energy:                                 -3.51552592106854
  Hartree-Fock Exchange energy:                                -1.79465904237038

  GAPW| Exc from hard and soft atomic rho1:                    -4.06300965371386
  GAPW| local Eh = 1 center integrals:                         -7.76409151459687

  Total energy:                                               -76.40565599494067

  outer SCF iter =    1 RMS gradient =   0.50E-07 energy =        -76.4056559949
  outer SCF loop converged in   1 iterations or    7 steps


 !-----------------------------------------------------------------------------!
                     Mulliken Population Analysis

 #  Atom  Element  Kind  Atomic population                           Net charge
       1     O        1          8.801979                             -0.801979
       2     H        2          0.599010                              0.400990
       3     H        2          0.599010                              0.400990
 # Total charge                             10.000000                 -0.000000

 !-----------------------------------------------------------------------------!

 !-----------------------------------------------------------------------------!
                           Hirshfeld Charges

  #Atom  Element  Kind  Ref Charge     Population                    Net charge
      1       O      1       8.000          9.167                        -1.167
      2       H      2       1.000          0.415                         0.585
      3       H      2       1.000          0.415                         0.585

  Total Charge                                                            0.002
 !-----------------------------------------------------------------------------!

  HFX_MEM_INFO| Number of cart. primitive DERIV's calculated:           10246056
  HFX_MEM_INFO| Number of sph. DERIV's calculated:                        658368
  HFX_MEM_INFO| Number of sph. DERIV's stored in-core:                         0
  HFX_MEM_INFO| Number of sph. DERIV's calculated on the fly:             658368
  HFX_MEM_INFO| Total memory consumption DERIV's RAM [MiB]:                    0
  HFX_MEM_INFO| Whereof max-vals [MiB]:                                        1
  HFX_MEM_INFO| Total compression factor DERIV's RAM:                       0.00


 ENERGY| Total FORCE_EVAL ( QS ) energy [a.u.]:              -76.405655994945420

 Number of electrons:                                                         10
 Number of occupied orbitals:                                                  5
 Number of molecular orbitals:                                                 5

 Number of orbital functions:                                                 18
 Number of independent orbital functions:                                     18

 Parameters for the always stable predictor-corrector (ASPC) method:

  ASPC order: 1

  B(1) =   2.500000
  B(2) =  -2.000000
  B(3) =   0.500000

 Extrapolation method: ASPC


 SCF WAVEFUNCTION OPTIMIZATION

  ----------------------------------- OT ---------------------------------------
  Minimizer      : DIIS                : direct inversion
                                         in the iterative subspace
                                         using   7 DIIS vectors
                                         safer DIIS on
  Preconditioner : FULL_ALL            : diagonalization, state selective
  Precond_solver : DEFAULT
  stepsize       :    0.15000000                  energy_gap     :    0.08000000
  eps_taylor     :   0.10000E-15                  max_taylor     :             4
  ----------------------------------- OT ---------------------------------------

  Step     Update method      Time    Convergence         Total energy    Change
  ------------------------------------------------------------------------------

  HFX_MEM_INFO| Est. max. program size before HFX [MiB]:                    1107
  HFX_MEM_INFO| Number of cart. primitive ERI's calculated:               861846
  HFX_MEM_INFO| Number of sph. ERI's calculated:                           54864
  HFX_MEM_INFO| Number of sph. ERI's stored in-core:                       54864
  HFX_MEM_INFO| Number of sph. ERI's stored on disk:                           0
  HFX_MEM_INFO| Number of sph. ERI's calculated on the fly:                    0
  HFX_MEM_INFO| Total memory consumption ERI's RAM [MiB]:                      1
  HFX_MEM_INFO| Whereof max-vals [MiB]:                                        1
  HFX_MEM_INFO| Total compression factor ERI's RAM:                         2.06
  HFX_MEM_INFO| Total memory consumption ERI's disk [MiB]:                     0
  HFX_MEM_INFO| Total compression factor ERI's disk:                        0.00
  HFX_MEM_INFO| Size of density/Fock matrix [MiB]:                             0
  HFX_MEM_INFO| Size of buffers [MiB]:                                         0
  HFX_MEM_INFO| Est. max. program size after HFX  [MiB]:                    1107

     1 OT DIIS     0.15E+00    2.2     0.00177488       -76.4055828328 -7.64E+01
     2 OT DIIS     0.15E+00    2.4     0.00078214       -76.4056109033 -2.81E-05
     3 OT DIIS     0.15E+00    2.4     0.00031788       -76.4056168752 -5.97E-06
     4 OT DIIS     0.15E+00    2.4     0.00001960       -76.4056177642 -8.89E-07
     5 OT DIIS     0.15E+00    2.6     0.00000397       -76.4056177685 -4.31E-09
     6 OT DIIS     0.15E+00    2.4     0.00000040       -76.4056177687 -1.89E-10
     7 OT DIIS     0.15E+00    2.4     0.00000008       -76.4056177687 -2.26E-12

  *** SCF run converged in     7 steps ***


  Electronic density on regular grids:         -8.0119800456        1.9880199544
  Core density on regular grids:               10.0000000000        0.0000000000
  Hard and soft densities (Lebedev):          -14.7499182057      -12.7618988876
  Total Rho_soft + Rho1_hard - Rho1_soft       -9.9999993637
  Total charge density (r-space):               0.0000006363
  Total Rho_soft + Rho0_soft (g-space):        -0.0000010195

  Overlap energy of the core charge distribution:               0.00000016640370
  Self energy of the core charge distribution:                -75.73106814560732
  Core Hamiltonian energy:                                     -5.25799059367444
  Hartree energy:                                              21.72073721632217
  Exchange-correlation energy:                                 -3.51553453570202
  Hartree-Fock Exchange energy:                                -1.79466117288563

  GAPW| Exc from hard and soft atomic rho1:                    -4.06301117282666
  GAPW| local Eh = 1 center integrals:                         -7.76408953071913

  Total energy:                                               -76.40561776868932

  outer SCF iter =    1 RMS gradient =   0.80E-07 energy =        -76.4056177687
  outer SCF loop converged in   1 iterations or    7 steps


 !-----------------------------------------------------------------------------!
                     Mulliken Population Analysis

 #  Atom  Element  Kind  Atomic population                           Net charge
       1     O        1          8.801951                             -0.801951
       2     H        2          0.599616                              0.400384
       3     H        2          0.598434                              0.401566
 # Total charge                             10.000000                 -0.000000

 !-----------------------------------------------------------------------------!

 !-----------------------------------------------------------------------------!
                           Hirshfeld Charges

  #Atom  Element  Kind  Ref Charge     Population                    Net charge
      1       O      1       8.000          9.167                        -1.167
      2       H      2       1.000          0.415                         0.585
      3       H      2       1.000          0.416                         0.584

  Total Charge                                                            0.002
 !-----------------------------------------------------------------------------!

  HFX_MEM_INFO| Number of cart. primitive DERIV's calculated:           10246104
  HFX_MEM_INFO| Number of sph. DERIV's calculated:                        658368
  HFX_MEM_INFO| Number of sph. DERIV's stored in-core:                         0
  HFX_MEM_INFO| Number of sph. DERIV's calculated on the fly:             658368
  HFX_MEM_INFO| Total memory consumption DERIV's RAM [MiB]:                    0
  HFX_MEM_INFO| Whereof max-vals [MiB]:                                        1
  HFX_MEM_INFO| Total compression factor DERIV's RAM:                       0.00


 ENERGY| Total FORCE_EVAL ( QS ) energy [a.u.]:              -76.405617768687833

 Number of electrons:                                                         10
 Number of occupied orbitals:                                                  5
 Number of molecular orbitals:                                                 5

 Number of orbital functions:                                                 18
 Number of independent orbital functions:                                     18

 Parameters for the always stable predictor-corrector (ASPC) method:

  ASPC order: 2

  B(1) =   2.800000
  B(2) =  -2.800000
  B(3) =   1.200000
  B(4) =  -0.200000

 Extrapolation method: ASPC


 SCF WAVEFUNCTION OPTIMIZATION

  ----------------------------------- OT ---------------------------------------
  Minimizer      : DIIS                : direct inversion
                                         in the iterative subspace
                                         using   7 DIIS vectors
                                         safer DIIS on
  Preconditioner : FULL_ALL            : diagonalization, state selective
  Precond_solver : DEFAULT
  stepsize       :    0.15000000                  energy_gap     :    0.08000000
  eps_taylor     :   0.10000E-15                  max_taylor     :             4
  ----------------------------------- OT ---------------------------------------

  Step     Update method      Time    Convergence         Total energy    Change
  ------------------------------------------------------------------------------

  HFX_MEM_INFO| Est. max. program size before HFX [MiB]:                    1107
  HFX_MEM_INFO| Number of cart. primitive ERI's calculated:               861906
  HFX_MEM_INFO| Number of sph. ERI's calculated:                           54864
  HFX_MEM_INFO| Number of sph. ERI's stored in-core:                       54864
  HFX_MEM_INFO| Number of sph. ERI's stored on disk:                           0
  HFX_MEM_INFO| Number of sph. ERI's calculated on the fly:                    0
  HFX_MEM_INFO| Total memory consumption ERI's RAM [MiB]:                      1
  HFX_MEM_INFO| Whereof max-vals [MiB]:                                        1
  HFX_MEM_INFO| Total compression factor ERI's RAM:                         2.06
  HFX_MEM_INFO| Total memory consumption ERI's disk [MiB]:                     0
  HFX_MEM_INFO| Total compression factor ERI's disk:                        0.00
  HFX_MEM_INFO| Size of density/Fock matrix [MiB]:                             0
  HFX_MEM_INFO| Size of buffers [MiB]:                                         0
  HFX_MEM_INFO| Est. max. program size after HFX  [MiB]:                    1107

     1 OT DIIS     0.15E+00    2.2     0.00305715       -76.4056878960 -7.64E+01
     2 OT DIIS     0.15E+00    2.4     0.00131839       -76.4057748178 -8.69E-05
     3 OT DIIS     0.15E+00    2.4     0.00041858       -76.4057937914 -1.90E-05
     4 OT DIIS     0.15E+00    2.4     0.00004027       -76.4057950705 -1.28E-06
     5 OT DIIS     0.15E+00    2.4     0.00000951       -76.4057950873 -1.67E-08
     6 OT DIIS     0.15E+00    2.3     0.00000069       -76.4057950883 -1.06E-09
     7 OT DIIS     0.15E+00    2.4     0.00000010       -76.4057950883 -6.30E-12
     8 OT DIIS     0.15E+00    2.4     0.00000002       -76.4057950883 -2.34E-12

  *** SCF run converged in     8 steps ***


  Electronic density on regular grids:         -8.0121349714        1.9878650286
  Core density on regular grids:               10.0000000000        0.0000000000
  Hard and soft densities (Lebedev):          -14.7337519679      -12.7458875722
  Total Rho_soft + Rho1_hard - Rho1_soft       -9.9999993671
  Total charge density (r-space):               0.0000006329
  Total Rho_soft + Rho0_soft (g-space):        -0.0000010720

  Overlap energy of the core charge distribution:               0.00000015584407
  Self energy of the core charge distribution:                -75.73106814560732
  Core Hamiltonian energy:                                     -5.26341713390075
  Hartree energy:                                              21.72479267117309
  Exchange-correlation energy:                                 -3.51443803800263
  Hartree-Fock Exchange energy:                                -1.79431373025403

  GAPW| Exc from hard and soft atomic rho1:                    -4.06286701464406
  GAPW| local Eh = 1 center integrals:                         -7.76448385292549

  Total energy:                                               -76.40579508831713

  outer SCF iter =    1 RMS gradient =   0.21E-07 energy =        -76.4057950883
  outer SCF loop converged in   1 iterations or    8 steps


 !-----------------------------------------------------------------------------!
                     Mulliken Population Analysis

 #  Atom  Element  Kind  Atomic population                           Net charge
       1     O        1          8.801319                             -0.801319
       2     H        2          0.599570                              0.400430
       3     H        2          0.599112                              0.400888
 # Total charge                             10.000000                 -0.000000

 !-----------------------------------------------------------------------------!

 !-----------------------------------------------------------------------------!
                           Hirshfeld Charges

  #Atom  Element  Kind  Ref Charge     Population                    Net charge
      1       O      1       8.000          9.167                        -1.167
      2       H      2       1.000          0.415                         0.585
      3       H      2       1.000          0.416                         0.584

  Total Charge                                                            0.002
 !-----------------------------------------------------------------------------!

  HFX_MEM_INFO| Number of cart. primitive DERIV's calculated:           10246020
  HFX_MEM_INFO| Number of sph. DERIV's calculated:                        658368
  HFX_MEM_INFO| Number of sph. DERIV's stored in-core:                         0
  HFX_MEM_INFO| Number of sph. DERIV's calculated on the fly:             658368
  HFX_MEM_INFO| Total memory consumption DERIV's RAM [MiB]:                    0
  HFX_MEM_INFO| Whereof max-vals [MiB]:                                        1
  HFX_MEM_INFO| Total compression factor DERIV's RAM:                       0.00


 ENERGY| Total FORCE_EVAL ( QS ) energy [a.u.]:              -76.405795088318143

 Number of electrons:                                                         10
 Number of occupied orbitals:                                                  5
 Number of molecular orbitals:                                                 5

 Number of orbital functions:                                                 18
 Number of independent orbital functions:                                     18

 Parameters for the always stable predictor-corrector (ASPC) method:

  ASPC order: 3

  B(1) =   3.000000
  B(2) =  -3.428571
  B(3) =   1.928571
  B(4) =  -0.571429
  B(5) =   0.071429

 Extrapolation method: ASPC


 SCF WAVEFUNCTION OPTIMIZATION

  ----------------------------------- OT ---------------------------------------
  Minimizer      : DIIS                : direct inversion
                                         in the iterative subspace
                                         using   7 DIIS vectors
                                         safer DIIS on
  Preconditioner : FULL_ALL            : diagonalization, state selective
  Precond_solver : DEFAULT
  stepsize       :    0.15000000                  energy_gap     :    0.08000000
  eps_taylor     :   0.10000E-15                  max_taylor     :             4
  ----------------------------------- OT ---------------------------------------

  Step     Update method      Time    Convergence         Total energy    Change
  ------------------------------------------------------------------------------

  HFX_MEM_INFO| Est. max. program size before HFX [MiB]:                    1107
  HFX_MEM_INFO| Number of cart. primitive ERI's calculated:               862022
  HFX_MEM_INFO| Number of sph. ERI's calculated:                           54864
  HFX_MEM_INFO| Number of sph. ERI's stored in-core:                       54864
  HFX_MEM_INFO| Number of sph. ERI's stored on disk:                           0
  HFX_MEM_INFO| Number of sph. ERI's calculated on the fly:                    0
  HFX_MEM_INFO| Total memory consumption ERI's RAM [MiB]:                      1
  HFX_MEM_INFO| Whereof max-vals [MiB]:                                        1
  HFX_MEM_INFO| Total compression factor ERI's RAM:                         2.06
  HFX_MEM_INFO| Total memory consumption ERI's disk [MiB]:                     0
  HFX_MEM_INFO| Total compression factor ERI's disk:                        0.00
  HFX_MEM_INFO| Size of density/Fock matrix [MiB]:                             0
  HFX_MEM_INFO| Size of buffers [MiB]:                                         0
  HFX_MEM_INFO| Est. max. program size after HFX  [MiB]:                    1107

     1 OT DIIS     0.15E+00    2.2     0.00377508       -76.4054952397 -7.64E+01
     2 OT DIIS     0.15E+00    2.4     0.00164901       -76.4056249106 -1.30E-04
     3 OT DIIS     0.15E+00    2.4     0.00062041       -76.4056528381 -2.79E-05
     4 OT DIIS     0.15E+00    2.4     0.00004480       -76.4056559718 -3.13E-06
     5 OT DIIS     0.15E+00    2.4     0.00001053       -76.4056559936 -2.18E-08
     6 OT DIIS     0.15E+00    2.3     0.00000092       -76.4056559949 -1.31E-09
     7 OT DIIS     0.15E+00    2.4     0.00000017       -76.4056559949 -8.00E-12
     8 OT DIIS     0.15E+00    2.4     0.00000003       -76.4056559949  1.22E-12

  *** SCF run converged in     8 steps ***


  Electronic density on regular grids:         -8.0119804744        1.9880195256
  Core density on regular grids:               10.0000000000        0.0000000000
  Hard and soft densities (Lebedev):          -14.7499800812      -12.7619611923
  Total Rho_soft + Rho1_hard - Rho1_soft       -9.9999993634
  Total charge density (r-space):               0.0000006366
  Total Rho_soft + Rho0_soft (g-space):        -0.0000010190

  Overlap energy of the core charge distribution:               0.00000016462090
  Self energy of the core charge distribution:                -75.73106814560732
  Core Hamiltonian energy:                                     -5.25805854817699
  Hartree energy:                                              21.72075663676591
  Exchange-correlation energy:                                 -3.51552587492934
  Hartree-Fock Exchange energy:                                -1.79465902826586

  GAPW| Exc from hard and soft atomic rho1:                    -4.06300964371573
  GAPW| local Eh = 1 center integrals:                         -7.76409155560387

  Total energy:                                               -76.40565599491231

  outer SCF iter =    1 RMS gradient =   0.28E-07 energy =        -76.4056559949
  outer SCF loop converged in   1 iterations or    8 steps


 !-----------------------------------------------------------------------------!
                     Mulliken Population Analysis

 #  Atom  Element  Kind  Atomic population                           Net charge
       1     O        1          8.801979                             -0.801979
       2     H        2          0.599010                              0.400990
       3     H        2          0.599010                              0.400990
 # Total charge                             10.000000                  0.000000

 !-----------------------------------------------------------------------------!

 !-----------------------------------------------------------------------------!
                           Hirshfeld Charges

  #Atom  Element  Kind  Ref Charge     Population                    Net charge
      1       O      1       8.000          9.167                        -1.167
      2       H      2       1.000          0.415                         0.585
      3       H      2       1.000          0.415                         0.585

  Total Charge                                                            0.002
 !-----------------------------------------------------------------------------!

  HFX_MEM_INFO| Number of cart. primitive DERIV's calculated:           10246056
  HFX_MEM_INFO| Number of sph. DERIV's calculated:                        658368
  HFX_MEM_INFO| Number of sph. DERIV's stored in-core:                         0
  HFX_MEM_INFO| Number of sph. DERIV's calculated on the fly:             658368
  HFX_MEM_INFO| Total memory consumption DERIV's RAM [MiB]:                    0
  HFX_MEM_INFO| Whereof max-vals [MiB]:                                        1
  HFX_MEM_INFO| Total compression factor DERIV's RAM:                       0.00


 ENERGY| Total FORCE_EVAL ( QS ) energy [a.u.]:              -76.405655994907846

 Number of electrons:                                                         10
 Number of occupied orbitals:                                                  5
 Number of molecular orbitals:                                                 5

 Number of orbital functions:                                                 18
 Number of independent orbital functions:                                     18

 Parameters for the always stable predictor-corrector (ASPC) method:

  ASPC order: 3

  B(1) =   3.000000
  B(2) =  -3.428571
  B(3) =   1.928571
  B(4) =  -0.571429
  B(5) =   0.071429

 Extrapolation method: ASPC


 SCF WAVEFUNCTION OPTIMIZATION

  ----------------------------------- OT ---------------------------------------
  Minimizer      : DIIS                : direct inversion
                                         in the iterative subspace
                                         using   7 DIIS vectors
                                         safer DIIS on
  Preconditioner : FULL_ALL            : diagonalization, state selective
  Precond_solver : DEFAULT
  stepsize       :    0.15000000                  energy_gap     :    0.08000000
  eps_taylor     :   0.10000E-15                  max_taylor     :             4
  ----------------------------------- OT ---------------------------------------

  Step     Update method      Time    Convergence         Total energy    Change
  ------------------------------------------------------------------------------

  HFX_MEM_INFO| Est. max. program size before HFX [MiB]:                    1107
  HFX_MEM_INFO| Number of cart. primitive ERI's calculated:               862022
  HFX_MEM_INFO| Number of sph. ERI's calculated:                           54864
  HFX_MEM_INFO| Number of sph. ERI's stored in-core:                       54864
  HFX_MEM_INFO| Number of sph. ERI's stored on disk:                           0
  HFX_MEM_INFO| Number of sph. ERI's calculated on the fly:                    0
  HFX_MEM_INFO| Total memory consumption ERI's RAM [MiB]:                      1
  HFX_MEM_INFO| Whereof max-vals [MiB]:                                        1
  HFX_MEM_INFO| Total compression factor ERI's RAM:                         2.06
  HFX_MEM_INFO| Total memory consumption ERI's disk [MiB]:                     0
  HFX_MEM_INFO| Total compression factor ERI's disk:                        0.00
  HFX_MEM_INFO| Size of density/Fock matrix [MiB]:                             0
  HFX_MEM_INFO| Size of buffers [MiB]:                                         0
  HFX_MEM_INFO| Est. max. program size after HFX  [MiB]:                    1107

     1 OT DIIS     0.15E+00    2.2     0.00268721       -76.4055778877 -7.64E+01
     2 OT DIIS     0.15E+00    2.4     0.00118806       -76.4056405280 -6.26E-05
     3 OT DIIS     0.15E+00    2.4     0.00050739       -76.4056535635 -1.30E-05
     4 OT DIIS     0.15E+00    2.4     0.00002846       -76.4056559854 -2.42E-06
     5 OT DIIS     0.15E+00    2.4     0.00000504       -76.4056559946 -9.21E-09
     6 OT DIIS     0.15E+00    2.4     0.00000047       -76.4056559949 -2.92E-10
     7 OT DIIS     0.15E+00    2.4     0.00000010       -76.4056559949 -3.82E-12

  *** SCF run converged in     7 steps ***


  Electronic density on regular grids:         -8.0119804517        1.9880195483
  Core density on regular grids:               10.0000000000        0.0000000000
  Hard and soft densities (Lebedev):          -14.7499800416      -12.7619611300
  Total Rho_soft + Rho1_hard - Rho1_soft       -9.9999993634
  Total charge density (r-space):               0.0000006366
  Total Rho_soft + Rho0_soft (g-space):        -0.0000010190

  Overlap energy of the core charge distribution:               0.00000016462090
  Self energy of the core charge distribution:                -75.73106814560732
  Core Hamiltonian energy:                                     -5.25805767001502
  Hartree energy:                                              21.72075583551570
  Exchange-correlation energy:                                 -3.51552598998970
  Hartree-Fock Exchange energy:                                -1.79465906303126

  GAPW| Exc from hard and soft atomic rho1:                    -4.06300966938309
  GAPW| local Eh = 1 center integrals:                         -7.76409145701415

  Total energy:                                               -76.40565599490394

  outer SCF iter =    1 RMS gradient =   0.96E-07 energy =        -76.4056559949
  outer SCF loop converged in   1 iterations or    7 steps


 !-----------------------------------------------------------------------------!
                     Mulliken Population Analysis

 #  Atom  Element  Kind  Atomic population                           Net charge
       1     O        1          8.801979                             -0.801979
       2     H        2          0.599010                              0.400990
       3     H        2          0.599010                              0.400990
 # Total charge                             10.000000                  0.000000

 !-----------------------------------------------------------------------------!

 !-----------------------------------------------------------------------------!
                           Hirshfeld Charges

  #Atom  Element  Kind  Ref Charge     Population                    Net charge
      1       O      1       8.000          9.167                        -1.167
      2       H      2       1.000          0.415                         0.585
      3       H      2       1.000          0.415                         0.585

  Total Charge                                                            0.002
 !-----------------------------------------------------------------------------!

  HFX_MEM_INFO| Number of cart. primitive DERIV's calculated:           10246056
  HFX_MEM_INFO| Number of sph. DERIV's calculated:                        658368
  HFX_MEM_INFO| Number of sph. DERIV's stored in-core:                         0
  HFX_MEM_INFO| Number of sph. DERIV's calculated on the fly:             658368
  HFX_MEM_INFO| Total memory consumption DERIV's RAM [MiB]:                    0
  HFX_MEM_INFO| Whereof max-vals [MiB]:                                        1
  HFX_MEM_INFO| Total compression factor DERIV's RAM:                       0.00


 ENERGY| Total FORCE_EVAL ( QS ) energy [a.u.]:              -76.405655994900599

 -------------------------------------------------------------------------------
 ----                             MULTIGRID INFO                            ----
 -------------------------------------------------------------------------------
 count for grid        1:           1560          cutoff [a.u.]          200.00
 count for grid        2:            342          cutoff [a.u.]           66.67
 count for grid        3:             86          cutoff [a.u.]           22.22
 count for grid        4:              4          cutoff [a.u.]            7.41
 total gridlevel count  :           1992

 -------------------------------------------------------------------------------
 -                                                                             -
 -                         MESSAGE PASSING PERFORMANCE                         -
 -                                                                             -
 -------------------------------------------------------------------------------

 ROUTINE             CALLS      AVE VOLUME [Bytes]
 MP_Group                5
 MP_Bcast              825                   1666.
 MP_Allreduce         1934                    432.
 MP_Sync               382
 MP_Send                 1                    360.
 -------------------------------------------------------------------------------


 -------------------------------------------------------------------------------
 -                                                                             -
 -                           R E F E R E N C E S                               -
 -                                                                             -
 -------------------------------------------------------------------------------
 
 CP2K version 9.0 (Development Version), the CP2K developers group (2021).
 CP2K is freely available from https://www.cp2k.org/ .

 Kuehne,Thomas D.; Iannuzzi,Marcella; Del Ben,Mauro;
 Rybkin,Vladimir V.; Seewald,Patrick; Stein,Frederick; Laino,Teodoro;
 Khaliullin,Rustam Z.; Schuett,Ole; Schiffmann,Florian; Golze,Dorothea;
 Wilhelm,Jan; Chulkov,Sergey; Bani-Hashemian,Mohammad Hossein;
 Weber,Valery; Borstnik,Urban; Taillefumier,Mathieu;
 Jakobovits,Alice Shoshana; Lazzaro,Alfio; Pabst,Hans; Mueller,Tiziano;
 Schade,Robert; Guidon,Manuel; Andermatt,Samuel; Holmberg,Nico;
 Schenter,Gregory K.; Hehn,Anna; Bussy,Augustin; Belleflamme,Fabian;
 Tabacchi,Gloria; Gloess,Andreas; Lass,Michael; Bethune,Iain;
 Mundy,Christopher J.; Plessl,Christian; Watkins,Matt;
 VandeVondele,Joost; Krack,Matthias; Hutter,Juerg. 
 The Journal of Chemical Physics, 152 (19), (2020). 
 CP2K: An electronic structure and molecular dynamics software package -
 Quickstep: Efficient and accurate electronic structure calculations.
 https://doi.org/10.1063/5.0007045

 Lehtola, S; Steigemann, C; Oliveira, MJT; Marques, MAL. 
 SoftwareX, 7, 1-5 (2018). 
 Recent developments in libxc - A comprehensive library of functionals
 for density functional theory.
 https://doi.org/10.1016/j.softx.2017.11.002

 Schuett, Ole; Messmer, Peter; Hutter, Juerg; VandeVondele, Joost. 
 Electronic Structure Calculations on Graphics Processing Units, John
 Wiley & Sons, Ltd, 173-190 (2016). 
 GPU-Accelerated Sparse Matrix-Matrix Multiplication for
 Linear Scaling Density Functional Theory.
 https://doi.org/10.1002/9781118670712.ch8

 Heinecke, A; Henry, G; Hutchinson, M; Pabst, H. 
 Proceedings of Intl. Supercomputing Conference, 981-991 (2016). 
 LIBXSMM: Accelerating Small Matrix Multiplications
 by Runtime Code Generation.
 https://doi.org/10.1109/SC.2016.83

 Borstnik, U; VandeVondele, J; Weber, V; Hutter, J. 
 PARALLEL COMPUTING, 40 (5-6), 47-58 (2014). 
 Sparse matrix multiplication: The distributed block-compressed sparse
 row library.
 https://doi.org/10.1016/j.parco.2014.03.012

 Hutter, J; Iannuzzi, M; Schiffmann, F; VandeVondele, J. 
 WIREs Comput Mol Sci., 4 (1), 15-25 (2014). 
 CP2K: atomistic simulations of condensed matter systems.
 https://doi.org/10.1002/wcms.1159

 Marek, A; Blum, V; Johanni, R; Havu, V; Lang, B; Auckenthaler, T;
 Heinecke, A; Bungartz, H; Lederer, H. 
 Journal of Physics: Condensed Matter, 26 (21), (2014). 
 The ELPA library: scalable parallel eigenvalue solutions for
 electronic structure
 theory and computational science.
 https://doi.org/10.1088/0953-8984/26/21/213201

 Marques, MAL; Oliveira, MJT; Burnus, T. 
 COMPUTER PHYSICS COMMUNICATIONS, 183 (10), 2272-2281 (2012). 
 LIBXC: A library of exchange and correlation functionals for density
 functional theory.
 https://doi.org/10.1016/j.cpc.2012.05.007

 Guidon, M; Hutter, J; VandeVondele, J. 
 JOURNAL OF CHEMICAL THEORY AND COMPUTATION, 5 (11), 3010-3021 (2009). 
 Robust Periodic Hartree-Fock Exchange for Large-Scale Simulations Using
 Gaussian Basis Sets.
 https://doi.org/10.1021/ct900494g

 Guidon, M; Schiffmann, F; Hutter, J; VandeVondele, J. 
 JOURNAL OF CHEMICAL PHYSICS, 128 (21), 214104 (2008). 
 Ab initio molecular dynamics using hybrid density functionals.
 https://doi.org/10.1063/1.2931945

 Kuhne, TD; Krack, M; Mohamed, FR; Parrinello, M. 
 PHYSICAL REVIEW LETTERS, 98 (6), 066401 (2007). 
 Efficient and accurate Car-Parrinello-like approach to
 Born-Oppenheimer molecular dynamics.
 https://doi.org/10.1103/PhysRevLett.98.066401

 Frigo, M; Johnson, SG. 
 PROCEEDINGS OF THE IEEE, 93 (2), 216-231 (2005). 
 The design and implementation of FFTW3.
 https://doi.org/10.1109/JPROC.2004.840301

 Kolafa, J. 
 JOURNAL OF COMPUTATIONAL CHEMISTRY, 25 (3), 335-342 (2004). 
 Time-reversible always stable predictor-corrector method for molecular dynamics of polarizable molecules.
 https://doi.org/10.1002/jcc.10385

 VandeVondele, J; Hutter, J. 
 JOURNAL OF CHEMICAL PHYSICS, 118 (10), 4365-4369 (2003). 
 An efficient orbital transformation method for electronic structure
 calculations.
 https://doi.org/10.1063/1.1543154

 Lippert, G; Hutter, J; Parrinello, M. 
 THEORETICAL CHEMISTRY ACCOUNTS, 103 (2), 124-140 (1999). 
 The Gaussian and augmented-plane-wave density functional method for ab
 initio molecular dynamics simulations.
 https://doi.org/10.1007/s002140050523

 Krack, M; Parrinello, M. 
 PHYSICAL CHEMISTRY CHEMICAL PHYSICS, 2 (10), 2105-2112 (2000). 
 All-electron ab-initio molecular dynamics.
 https://doi.org/10.1039/b001167n

 Martyna, GJ; Tuckerman, ME. 
 JOURNAL OF CHEMICAL PHYSICS, 110 (6), 2810-2821 (1999). 
 A reciprocal space based method for treating long range interactions in
 ab initio and force-field-based calculations in clusters.
 https://doi.org/10.1063/1.477923


 -------------------------------------------------------------------------------
 -                                                                             -
 -                                T I M I N G                                  -
 -                                                                             -
 -------------------------------------------------------------------------------
 SUBROUTINE                       CALLS  ASD         SELF TIME        TOTAL TIME
                                MAXIMUM       AVERAGE  MAXIMUM  AVERAGE  MAXIMUM
 CP2K                                 1  1.0    0.008    0.008  171.081  171.081
 rep_env_calc_e_f                     7  2.0    0.002    0.002  167.661  167.661
 qs_forces                            7  3.0    0.000    0.000  160.905  160.905
 qs_energies                          7  4.0    0.000    0.000  144.163  144.163
 rebuild_ks_matrix                   66  7.7    0.000    0.000  143.320  143.320
 qs_ks_build_kohn_sham_matrix        66  8.7    0.010    0.010  143.320  143.320
 scf_env_do_scf                       7  5.0    0.000    0.000  142.098  142.098
 qs_ks_update_qs_env                 67  7.0    0.000    0.000  126.590  126.590
 scf_env_do_scf_inner_loop           59  6.0    0.004    0.004  123.557  123.557
 qs_vxc_create                       66  9.7    0.001    0.001   94.758   94.758
 xc_vxc_pw_create                    66 10.7    2.460    2.460   94.757   94.757
 pw_transfer                       1387 11.4    0.083    0.083   82.494   82.494
 fft_wrap_pw1pw2                   1189 12.5    0.013    0.013   81.259   81.259
 fft_wrap_pw1pw2_200                792 13.6    4.063    4.063   78.225   78.225
 xc_rho_set_and_dset_create          66 11.7    0.419    0.419   61.825   61.825
 xc_functional_eval                 462 11.8    0.002    0.002   47.389   47.389
 libxc_lda_eval                     462 12.8   47.384   47.384   47.387   47.387
 fft3d_s                           1190 14.5   42.143   42.143   42.181   42.181
 pw_gather_s                        595 14.1   19.306   19.306   19.306   19.306
 init_scf_loop                        8  6.0    0.000    0.000   18.539   18.539
 qs_rho_update_rho                   66  7.1    0.001    0.001   16.764   16.764
 calculate_rho_elec                  66  8.1    0.632    0.632   16.755   16.755
 qs_ks_update_qs_env_forces           7  4.0    0.000    0.000   16.732   16.732
 pw_scatter_s                       594 14.9   15.517   15.517   15.517   15.517
 density_rs2pw                       66  9.1    0.003    0.003   15.452   15.452
 calculate_vxc_atom                  66  9.7    1.256    1.256   14.793   14.793
 prepare_gapw_den                    66  9.7    0.001    0.001    9.578    9.578
 sum_up_and_integrate                66  9.7    0.221    0.221    9.403    9.403
 integrate_v_rspace                  66 10.7    0.002    0.002    9.183    9.183
 potential_pw2rs                     66 11.7    0.022    0.022    8.997    8.997
 put_rho0_on_grid                    66 10.7    0.641    0.641    8.710    8.710
 vxc_of_r_new                       396 10.7    0.157    0.157    8.255    8.255
 mp_sum_dm                          693  7.0    6.841    6.841    6.841    6.841
 rep_env_sync                        10  2.7    0.000    0.000    6.841    6.841
 gaVxcgb_GC                         198 10.7    5.280    5.280    5.280    5.280
 pw_derive                          396 12.2    4.801    4.801    4.801    4.801
 pw_poisson_solve                    66  9.7    1.111    1.111    4.190    4.190
 pw_copy                            858 12.1    3.791    3.791    3.791    3.791
 -------------------------------------------------------------------------------

 The number of warnings for this run is : 0
 
 -------------------------------------------------------------------------------
  **** **** ******  **  PROGRAM ENDED AT                 2021-07-14 15:24:52.326
 ***** ** ***  *** **   PROGRAM RAN ON                                    tcpc23
 **    ****   ******    PROGRAM RAN BY                                    hsatoh
 ***** **    ** ** **   PROGRAM PROCESS ID                                  4807
  **** **  *******  **  PROGRAM STOPPED IN   /data/hsatoh/grrm17_cp2k/H2O-min-re
